n -t 0 -s 0 -S DLABEL -l "A" -L ""
n -t 0 -s 2 -S DLABEL -l "C" -L ""
n -t 0 -s 1 -S DLABEL -l "B" -L ""
n -t 0 -s 3 -S DLABEL -l "D" -L ""
V -t * -v 1.0a5 -a 0
A -t * -n 1 -p 0 -o 0x7fffffff -c 30 -a 1
A -t * -h 1 -m 1073741823 -s 0
n -t * -a 4 -s 4 -S UP -v circle -c black -i black
n -t * -a 0 -s 0 -S UP -v hexagon -c black -i black
n -t * -a 5 -s 5 -S UP -v circle -c black -i black
n -t * -a 1 -s 1 -S UP -v circle -c black -i black
n -t * -a 6 -s 6 -S UP -v circle -c black -i black
n -t * -a 2 -s 2 -S UP -v circle -c black -i black
n -t * -a 3 -s 3 -S UP -v hexagon -c black -i black
l -t * -s 0 -d 1 -S UP -r 10000000 -D 0.01 -c black -o left-down
l -t * -s 0 -d 2 -S UP -r 10000000 -D 0.01 -c black -o down
l -t * -s 1 -d 3 -S UP -r 10000000 -D 0.01 -c black -o down
l -t * -s 1 -d 2 -S UP -r 10000000 -D 0.01 -c black -o right
l -t * -s 2 -d 4 -S UP -r 10000000 -D 0.01 -c black -o right-down
l -t * -s 4 -d 5 -S UP -r 10000000 -D 0.01 -c black -o down
l -t * -s 5 -d 6 -S UP -r 10000000 -D 0.01 -c black -o left-down
l -t * -s 6 -d 3 -S UP -r 10000000 -D 0.01 -c black -o left
+ -t 0.000169788487334637 -s 0 -d 1 -p rtProtoDV -e 7 -c 0 -i 0 -a 0 -x {0.2 1.1 -1 ------- null}
- -t 0.000169788487334637 -s 0 -d 1 -p rtProtoDV -e 7 -c 0 -i 0 -a 0 -x {0.2 1.1 -1 ------- null}
h -t 0.000169788487334637 -s 0 -d 1 -p rtProtoDV -e 7 -c 0 -i 0 -a 0 -x {0.2 1.1 -1 ------- null}
+ -t 0.000169788487334637 -s 0 -d 2 -p rtProtoDV -e 7 -c 0 -i 1 -a 0 -x {0.2 2.1 -1 ------- null}
- -t 0.000169788487334637 -s 0 -d 2 -p rtProtoDV -e 7 -c 0 -i 1 -a 0 -x {0.2 2.1 -1 ------- null}
h -t 0.000169788487334637 -s 0 -d 2 -p rtProtoDV -e 7 -c 0 -i 1 -a 0 -x {0.2 2.1 -1 ------- null}
+ -t 0.00710233021858257 -s 2 -d 0 -p rtProtoDV -e 7 -c 0 -i 2 -a 0 -x {2.1 0.2 -1 ------- null}
- -t 0.00710233021858257 -s 2 -d 0 -p rtProtoDV -e 7 -c 0 -i 2 -a 0 -x {2.1 0.2 -1 ------- null}
h -t 0.00710233021858257 -s 2 -d 0 -p rtProtoDV -e 7 -c 0 -i 2 -a 0 -x {2.1 0.2 -1 ------- null}
+ -t 0.00710233021858257 -s 2 -d 1 -p rtProtoDV -e 7 -c 0 -i 3 -a 0 -x {2.1 1.1 -1 ------- null}
- -t 0.00710233021858257 -s 2 -d 1 -p rtProtoDV -e 7 -c 0 -i 3 -a 0 -x {2.1 1.1 -1 ------- null}
h -t 0.00710233021858257 -s 2 -d 1 -p rtProtoDV -e 7 -c 0 -i 3 -a 0 -x {2.1 1.1 -1 ------- null}
+ -t 0.00710233021858257 -s 2 -d 4 -p rtProtoDV -e 7 -c 0 -i 4 -a 0 -x {2.1 4.1 -1 ------- null}
- -t 0.00710233021858257 -s 2 -d 4 -p rtProtoDV -e 7 -c 0 -i 4 -a 0 -x {2.1 4.1 -1 ------- null}
h -t 0.00710233021858257 -s 2 -d 4 -p rtProtoDV -e 7 -c 0 -i 4 -a 0 -x {2.1 4.1 -1 ------- null}
r -t 0.0101753884873346 -s 0 -d 1 -p rtProtoDV -e 7 -c 0 -i 0 -a 0 -x {0.2 1.1 -1 ------- null}
r -t 0.0101753884873346 -s 0 -d 2 -p rtProtoDV -e 7 -c 0 -i 1 -a 0 -x {0.2 2.1 -1 ------- null}
r -t 0.0171079302185826 -s 2 -d 0 -p rtProtoDV -e 7 -c 0 -i 2 -a 0 -x {2.1 0.2 -1 ------- null}
+ -t 0.0171079302185826 -s 0 -d 1 -p rtProtoDV -e 7 -c 0 -i 5 -a 0 -x {0.2 1.1 -1 ------- null}
- -t 0.0171079302185826 -s 0 -d 1 -p rtProtoDV -e 7 -c 0 -i 5 -a 0 -x {0.2 1.1 -1 ------- null}
h -t 0.0171079302185826 -s 0 -d 1 -p rtProtoDV -e 7 -c 0 -i 5 -a 0 -x {0.2 1.1 -1 ------- null}
+ -t 0.0171079302185826 -s 0 -d 2 -p rtProtoDV -e 7 -c 0 -i 6 -a 0 -x {0.2 2.1 -1 ------- null}
- -t 0.0171079302185826 -s 0 -d 2 -p rtProtoDV -e 7 -c 0 -i 6 -a 0 -x {0.2 2.1 -1 ------- null}
h -t 0.0171079302185826 -s 0 -d 2 -p rtProtoDV -e 7 -c 0 -i 6 -a 0 -x {0.2 2.1 -1 ------- null}
r -t 0.0171079302185826 -s 2 -d 1 -p rtProtoDV -e 7 -c 0 -i 3 -a 0 -x {2.1 1.1 -1 ------- null}
+ -t 0.0171079302185826 -s 1 -d 0 -p rtProtoDV -e 7 -c 0 -i 7 -a 0 -x {1.1 0.2 -1 ------- null}
- -t 0.0171079302185826 -s 1 -d 0 -p rtProtoDV -e 7 -c 0 -i 7 -a 0 -x {1.1 0.2 -1 ------- null}
h -t 0.0171079302185826 -s 1 -d 0 -p rtProtoDV -e 7 -c 0 -i 7 -a 0 -x {1.1 0.2 -1 ------- null}
+ -t 0.0171079302185826 -s 1 -d 2 -p rtProtoDV -e 7 -c 0 -i 8 -a 0 -x {1.1 2.1 -1 ------- null}
- -t 0.0171079302185826 -s 1 -d 2 -p rtProtoDV -e 7 -c 0 -i 8 -a 0 -x {1.1 2.1 -1 ------- null}
h -t 0.0171079302185826 -s 1 -d 2 -p rtProtoDV -e 7 -c 0 -i 8 -a 0 -x {1.1 2.1 -1 ------- null}
+ -t 0.0171079302185826 -s 1 -d 3 -p rtProtoDV -e 7 -c 0 -i 9 -a 0 -x {1.1 3.2 -1 ------- null}
- -t 0.0171079302185826 -s 1 -d 3 -p rtProtoDV -e 7 -c 0 -i 9 -a 0 -x {1.1 3.2 -1 ------- null}
h -t 0.0171079302185826 -s 1 -d 3 -p rtProtoDV -e 7 -c 0 -i 9 -a 0 -x {1.1 3.2 -1 ------- null}
r -t 0.0171079302185826 -s 2 -d 4 -p rtProtoDV -e 7 -c 0 -i 4 -a 0 -x {2.1 4.1 -1 ------- null}
+ -t 0.0171079302185826 -s 4 -d 2 -p rtProtoDV -e 7 -c 0 -i 10 -a 0 -x {4.1 2.1 -1 ------- null}
- -t 0.0171079302185826 -s 4 -d 2 -p rtProtoDV -e 7 -c 0 -i 10 -a 0 -x {4.1 2.1 -1 ------- null}
h -t 0.0171079302185826 -s 4 -d 2 -p rtProtoDV -e 7 -c 0 -i 10 -a 0 -x {4.1 2.1 -1 ------- null}
+ -t 0.0171079302185826 -s 4 -d 5 -p rtProtoDV -e 7 -c 0 -i 11 -a 0 -x {4.1 5.1 -1 ------- null}
- -t 0.0171079302185826 -s 4 -d 5 -p rtProtoDV -e 7 -c 0 -i 11 -a 0 -x {4.1 5.1 -1 ------- null}
h -t 0.0171079302185826 -s 4 -d 5 -p rtProtoDV -e 7 -c 0 -i 11 -a 0 -x {4.1 5.1 -1 ------- null}
r -t 0.0271135302185826 -s 0 -d 1 -p rtProtoDV -e 7 -c 0 -i 5 -a 0 -x {0.2 1.1 -1 ------- null}
r -t 0.0271135302185826 -s 0 -d 2 -p rtProtoDV -e 7 -c 0 -i 6 -a 0 -x {0.2 2.1 -1 ------- null}
r -t 0.0271135302185826 -s 1 -d 0 -p rtProtoDV -e 7 -c 0 -i 7 -a 0 -x {1.1 0.2 -1 ------- null}
+ -t 0.0271135302185826 -s 0 -d 1 -p rtProtoDV -e 7 -c 0 -i 12 -a 0 -x {0.2 1.1 -1 ------- null}
- -t 0.0271135302185826 -s 0 -d 1 -p rtProtoDV -e 7 -c 0 -i 12 -a 0 -x {0.2 1.1 -1 ------- null}
h -t 0.0271135302185826 -s 0 -d 1 -p rtProtoDV -e 7 -c 0 -i 12 -a 0 -x {0.2 1.1 -1 ------- null}
+ -t 0.0271135302185826 -s 0 -d 2 -p rtProtoDV -e 7 -c 0 -i 13 -a 0 -x {0.2 2.1 -1 ------- null}
- -t 0.0271135302185826 -s 0 -d 2 -p rtProtoDV -e 7 -c 0 -i 13 -a 0 -x {0.2 2.1 -1 ------- null}
h -t 0.0271135302185826 -s 0 -d 2 -p rtProtoDV -e 7 -c 0 -i 13 -a 0 -x {0.2 2.1 -1 ------- null}
r -t 0.0271135302185826 -s 1 -d 2 -p rtProtoDV -e 7 -c 0 -i 8 -a 0 -x {1.1 2.1 -1 ------- null}
+ -t 0.0271135302185826 -s 2 -d 0 -p rtProtoDV -e 7 -c 0 -i 14 -a 0 -x {2.1 0.2 -1 ------- null}
- -t 0.0271135302185826 -s 2 -d 0 -p rtProtoDV -e 7 -c 0 -i 14 -a 0 -x {2.1 0.2 -1 ------- null}
h -t 0.0271135302185826 -s 2 -d 0 -p rtProtoDV -e 7 -c 0 -i 14 -a 0 -x {2.1 0.2 -1 ------- null}
+ -t 0.0271135302185826 -s 2 -d 1 -p rtProtoDV -e 7 -c 0 -i 15 -a 0 -x {2.1 1.1 -1 ------- null}
- -t 0.0271135302185826 -s 2 -d 1 -p rtProtoDV -e 7 -c 0 -i 15 -a 0 -x {2.1 1.1 -1 ------- null}
h -t 0.0271135302185826 -s 2 -d 1 -p rtProtoDV -e 7 -c 0 -i 15 -a 0 -x {2.1 1.1 -1 ------- null}
+ -t 0.0271135302185826 -s 2 -d 4 -p rtProtoDV -e 7 -c 0 -i 16 -a 0 -x {2.1 4.1 -1 ------- null}
- -t 0.0271135302185826 -s 2 -d 4 -p rtProtoDV -e 7 -c 0 -i 16 -a 0 -x {2.1 4.1 -1 ------- null}
h -t 0.0271135302185826 -s 2 -d 4 -p rtProtoDV -e 7 -c 0 -i 16 -a 0 -x {2.1 4.1 -1 ------- null}
r -t 0.0271135302185826 -s 1 -d 3 -p rtProtoDV -e 7 -c 0 -i 9 -a 0 -x {1.1 3.2 -1 ------- null}
+ -t 0.0271135302185826 -s 3 -d 1 -p rtProtoDV -e 7 -c 0 -i 17 -a 0 -x {3.2 1.1 -1 ------- null}
- -t 0.0271135302185826 -s 3 -d 1 -p rtProtoDV -e 7 -c 0 -i 17 -a 0 -x {3.2 1.1 -1 ------- null}
h -t 0.0271135302185826 -s 3 -d 1 -p rtProtoDV -e 7 -c 0 -i 17 -a 0 -x {3.2 1.1 -1 ------- null}
+ -t 0.0271135302185826 -s 3 -d 6 -p rtProtoDV -e 7 -c 0 -i 18 -a 0 -x {3.2 6.1 -1 ------- null}
- -t 0.0271135302185826 -s 3 -d 6 -p rtProtoDV -e 7 -c 0 -i 18 -a 0 -x {3.2 6.1 -1 ------- null}
h -t 0.0271135302185826 -s 3 -d 6 -p rtProtoDV -e 7 -c 0 -i 18 -a 0 -x {3.2 6.1 -1 ------- null}
r -t 0.0271135302185826 -s 4 -d 2 -p rtProtoDV -e 7 -c 0 -i 10 -a 0 -x {4.1 2.1 -1 ------- null}
+ -t 0.0271135302185826 -s 2 -d 0 -p rtProtoDV -e 7 -c 0 -i 19 -a 0 -x {2.1 0.2 -1 ------- null}
+ -t 0.0271135302185826 -s 2 -d 1 -p rtProtoDV -e 7 -c 0 -i 20 -a 0 -x {2.1 1.1 -1 ------- null}
+ -t 0.0271135302185826 -s 2 -d 4 -p rtProtoDV -e 7 -c 0 -i 21 -a 0 -x {2.1 4.1 -1 ------- null}
r -t 0.0271135302185826 -s 4 -d 5 -p rtProtoDV -e 7 -c 0 -i 11 -a 0 -x {4.1 5.1 -1 ------- null}
+ -t 0.0271135302185826 -s 5 -d 4 -p rtProtoDV -e 7 -c 0 -i 22 -a 0 -x {5.1 4.1 -1 ------- null}
- -t 0.0271135302185826 -s 5 -d 4 -p rtProtoDV -e 7 -c 0 -i 22 -a 0 -x {5.1 4.1 -1 ------- null}
h -t 0.0271135302185826 -s 5 -d 4 -p rtProtoDV -e 7 -c 0 -i 22 -a 0 -x {5.1 4.1 -1 ------- null}
+ -t 0.0271135302185826 -s 5 -d 6 -p rtProtoDV -e 7 -c 0 -i 23 -a 0 -x {5.1 6.1 -1 ------- null}
- -t 0.0271135302185826 -s 5 -d 6 -p rtProtoDV -e 7 -c 0 -i 23 -a 0 -x {5.1 6.1 -1 ------- null}
h -t 0.0271135302185826 -s 5 -d 6 -p rtProtoDV -e 7 -c 0 -i 23 -a 0 -x {5.1 6.1 -1 ------- null}
- -t 0.0271191302185826 -s 2 -d 0 -p rtProtoDV -e 7 -c 0 -i 19 -a 0 -x {2.1 0.2 -1 ------- null}
h -t 0.0271191302185826 -s 2 -d 0 -p rtProtoDV -e 7 -c 0 -i 19 -a 0 -x {2.1 0.2 -1 ------- null}
- -t 0.0271191302185826 -s 2 -d 1 -p rtProtoDV -e 7 -c 0 -i 20 -a 0 -x {2.1 1.1 -1 ------- null}
h -t 0.0271191302185826 -s 2 -d 1 -p rtProtoDV -e 7 -c 0 -i 20 -a 0 -x {2.1 1.1 -1 ------- null}
- -t 0.0271191302185826 -s 2 -d 4 -p rtProtoDV -e 7 -c 0 -i 21 -a 0 -x {2.1 4.1 -1 ------- null}
h -t 0.0271191302185826 -s 2 -d 4 -p rtProtoDV -e 7 -c 0 -i 21 -a 0 -x {2.1 4.1 -1 ------- null}
r -t 0.0371191302185826 -s 0 -d 1 -p rtProtoDV -e 7 -c 0 -i 12 -a 0 -x {0.2 1.1 -1 ------- null}
r -t 0.0371191302185826 -s 0 -d 2 -p rtProtoDV -e 7 -c 0 -i 13 -a 0 -x {0.2 2.1 -1 ------- null}
r -t 0.0371191302185826 -s 2 -d 0 -p rtProtoDV -e 7 -c 0 -i 14 -a 0 -x {2.1 0.2 -1 ------- null}
r -t 0.0371191302185826 -s 2 -d 1 -p rtProtoDV -e 7 -c 0 -i 15 -a 0 -x {2.1 1.1 -1 ------- null}
r -t 0.0371191302185826 -s 2 -d 4 -p rtProtoDV -e 7 -c 0 -i 16 -a 0 -x {2.1 4.1 -1 ------- null}
+ -t 0.0371191302185826 -s 4 -d 2 -p rtProtoDV -e 7 -c 0 -i 24 -a 0 -x {4.1 2.1 -1 ------- null}
- -t 0.0371191302185826 -s 4 -d 2 -p rtProtoDV -e 7 -c 0 -i 24 -a 0 -x {4.1 2.1 -1 ------- null}
h -t 0.0371191302185826 -s 4 -d 2 -p rtProtoDV -e 7 -c 0 -i 24 -a 0 -x {4.1 2.1 -1 ------- null}
+ -t 0.0371191302185826 -s 4 -d 5 -p rtProtoDV -e 7 -c 0 -i 25 -a 0 -x {4.1 5.1 -1 ------- null}
- -t 0.0371191302185826 -s 4 -d 5 -p rtProtoDV -e 7 -c 0 -i 25 -a 0 -x {4.1 5.1 -1 ------- null}
h -t 0.0371191302185826 -s 4 -d 5 -p rtProtoDV -e 7 -c 0 -i 25 -a 0 -x {4.1 5.1 -1 ------- null}
r -t 0.0371191302185826 -s 3 -d 1 -p rtProtoDV -e 7 -c 0 -i 17 -a 0 -x {3.2 1.1 -1 ------- null}
+ -t 0.0371191302185826 -s 1 -d 0 -p rtProtoDV -e 7 -c 0 -i 26 -a 0 -x {1.1 0.2 -1 ------- null}
- -t 0.0371191302185826 -s 1 -d 0 -p rtProtoDV -e 7 -c 0 -i 26 -a 0 -x {1.1 0.2 -1 ------- null}
h -t 0.0371191302185826 -s 1 -d 0 -p rtProtoDV -e 7 -c 0 -i 26 -a 0 -x {1.1 0.2 -1 ------- null}
+ -t 0.0371191302185826 -s 1 -d 2 -p rtProtoDV -e 7 -c 0 -i 27 -a 0 -x {1.1 2.1 -1 ------- null}
- -t 0.0371191302185826 -s 1 -d 2 -p rtProtoDV -e 7 -c 0 -i 27 -a 0 -x {1.1 2.1 -1 ------- null}
h -t 0.0371191302185826 -s 1 -d 2 -p rtProtoDV -e 7 -c 0 -i 27 -a 0 -x {1.1 2.1 -1 ------- null}
+ -t 0.0371191302185826 -s 1 -d 3 -p rtProtoDV -e 7 -c 0 -i 28 -a 0 -x {1.1 3.2 -1 ------- null}
- -t 0.0371191302185826 -s 1 -d 3 -p rtProtoDV -e 7 -c 0 -i 28 -a 0 -x {1.1 3.2 -1 ------- null}
h -t 0.0371191302185826 -s 1 -d 3 -p rtProtoDV -e 7 -c 0 -i 28 -a 0 -x {1.1 3.2 -1 ------- null}
r -t 0.0371191302185826 -s 3 -d 6 -p rtProtoDV -e 7 -c 0 -i 18 -a 0 -x {3.2 6.1 -1 ------- null}
+ -t 0.0371191302185826 -s 6 -d 3 -p rtProtoDV -e 7 -c 0 -i 29 -a 0 -x {6.1 3.2 -1 ------- null}
- -t 0.0371191302185826 -s 6 -d 3 -p rtProtoDV -e 7 -c 0 -i 29 -a 0 -x {6.1 3.2 -1 ------- null}
h -t 0.0371191302185826 -s 6 -d 3 -p rtProtoDV -e 7 -c 0 -i 29 -a 0 -x {6.1 3.2 -1 ------- null}
+ -t 0.0371191302185826 -s 6 -d 5 -p rtProtoDV -e 7 -c 0 -i 30 -a 0 -x {6.1 5.1 -1 ------- null}
- -t 0.0371191302185826 -s 6 -d 5 -p rtProtoDV -e 7 -c 0 -i 30 -a 0 -x {6.1 5.1 -1 ------- null}
h -t 0.0371191302185826 -s 6 -d 5 -p rtProtoDV -e 7 -c 0 -i 30 -a 0 -x {6.1 5.1 -1 ------- null}
r -t 0.0371191302185826 -s 5 -d 4 -p rtProtoDV -e 7 -c 0 -i 22 -a 0 -x {5.1 4.1 -1 ------- null}
+ -t 0.0371191302185826 -s 4 -d 2 -p rtProtoDV -e 7 -c 0 -i 31 -a 0 -x {4.1 2.1 -1 ------- null}
+ -t 0.0371191302185826 -s 4 -d 5 -p rtProtoDV -e 7 -c 0 -i 32 -a 0 -x {4.1 5.1 -1 ------- null}
r -t 0.0371191302185826 -s 5 -d 6 -p rtProtoDV -e 7 -c 0 -i 23 -a 0 -x {5.1 6.1 -1 ------- null}
+ -t 0.0371191302185826 -s 6 -d 3 -p rtProtoDV -e 7 -c 0 -i 33 -a 0 -x {6.1 3.2 -1 ------- null}
+ -t 0.0371191302185826 -s 6 -d 5 -p rtProtoDV -e 7 -c 0 -i 34 -a 0 -x {6.1 5.1 -1 ------- null}
r -t 0.0371247302185826 -s 2 -d 0 -p rtProtoDV -e 7 -c 0 -i 19 -a 0 -x {2.1 0.2 -1 ------- null}
+ -t 0.0371247302185826 -s 0 -d 1 -p rtProtoDV -e 7 -c 0 -i 35 -a 0 -x {0.2 1.1 -1 ------- null}
- -t 0.0371247302185826 -s 0 -d 1 -p rtProtoDV -e 7 -c 0 -i 35 -a 0 -x {0.2 1.1 -1 ------- null}
h -t 0.0371247302185826 -s 0 -d 1 -p rtProtoDV -e 7 -c 0 -i 35 -a 0 -x {0.2 1.1 -1 ------- null}
+ -t 0.0371247302185826 -s 0 -d 2 -p rtProtoDV -e 7 -c 0 -i 36 -a 0 -x {0.2 2.1 -1 ------- null}
- -t 0.0371247302185826 -s 0 -d 2 -p rtProtoDV -e 7 -c 0 -i 36 -a 0 -x {0.2 2.1 -1 ------- null}
h -t 0.0371247302185826 -s 0 -d 2 -p rtProtoDV -e 7 -c 0 -i 36 -a 0 -x {0.2 2.1 -1 ------- null}
r -t 0.0371247302185826 -s 2 -d 1 -p rtProtoDV -e 7 -c 0 -i 20 -a 0 -x {2.1 1.1 -1 ------- null}
+ -t 0.0371247302185826 -s 1 -d 0 -p rtProtoDV -e 7 -c 0 -i 37 -a 0 -x {1.1 0.2 -1 ------- null}
+ -t 0.0371247302185826 -s 1 -d 2 -p rtProtoDV -e 7 -c 0 -i 38 -a 0 -x {1.1 2.1 -1 ------- null}
+ -t 0.0371247302185826 -s 1 -d 3 -p rtProtoDV -e 7 -c 0 -i 39 -a 0 -x {1.1 3.2 -1 ------- null}
r -t 0.0371247302185826 -s 2 -d 4 -p rtProtoDV -e 7 -c 0 -i 21 -a 0 -x {2.1 4.1 -1 ------- null}
- -t 0.0371247302185826 -s 4 -d 2 -p rtProtoDV -e 7 -c 0 -i 31 -a 0 -x {4.1 2.1 -1 ------- null}
h -t 0.0371247302185826 -s 4 -d 2 -p rtProtoDV -e 7 -c 0 -i 31 -a 0 -x {4.1 2.1 -1 ------- null}
- -t 0.0371247302185826 -s 4 -d 5 -p rtProtoDV -e 7 -c 0 -i 32 -a 0 -x {4.1 5.1 -1 ------- null}
h -t 0.0371247302185826 -s 4 -d 5 -p rtProtoDV -e 7 -c 0 -i 32 -a 0 -x {4.1 5.1 -1 ------- null}
- -t 0.0371247302185826 -s 1 -d 0 -p rtProtoDV -e 7 -c 0 -i 37 -a 0 -x {1.1 0.2 -1 ------- null}
h -t 0.0371247302185826 -s 1 -d 0 -p rtProtoDV -e 7 -c 0 -i 37 -a 0 -x {1.1 0.2 -1 ------- null}
- -t 0.0371247302185826 -s 1 -d 2 -p rtProtoDV -e 7 -c 0 -i 38 -a 0 -x {1.1 2.1 -1 ------- null}
h -t 0.0371247302185826 -s 1 -d 2 -p rtProtoDV -e 7 -c 0 -i 38 -a 0 -x {1.1 2.1 -1 ------- null}
- -t 0.0371247302185826 -s 1 -d 3 -p rtProtoDV -e 7 -c 0 -i 39 -a 0 -x {1.1 3.2 -1 ------- null}
h -t 0.0371247302185826 -s 1 -d 3 -p rtProtoDV -e 7 -c 0 -i 39 -a 0 -x {1.1 3.2 -1 ------- null}
- -t 0.0371247302185826 -s 6 -d 3 -p rtProtoDV -e 7 -c 0 -i 33 -a 0 -x {6.1 3.2 -1 ------- null}
h -t 0.0371247302185826 -s 6 -d 3 -p rtProtoDV -e 7 -c 0 -i 33 -a 0 -x {6.1 3.2 -1 ------- null}
- -t 0.0371247302185826 -s 6 -d 5 -p rtProtoDV -e 7 -c 0 -i 34 -a 0 -x {6.1 5.1 -1 ------- null}
h -t 0.0371247302185826 -s 6 -d 5 -p rtProtoDV -e 7 -c 0 -i 34 -a 0 -x {6.1 5.1 -1 ------- null}
+ -t 0.04406133552271 -s 3 -d 1 -p rtProtoDV -e 7 -c 0 -i 40 -a 0 -x {3.2 1.1 -1 ------- null}
- -t 0.04406133552271 -s 3 -d 1 -p rtProtoDV -e 7 -c 0 -i 40 -a 0 -x {3.2 1.1 -1 ------- null}
h -t 0.04406133552271 -s 3 -d 1 -p rtProtoDV -e 7 -c 0 -i 40 -a 0 -x {3.2 1.1 -1 ------- null}
+ -t 0.04406133552271 -s 3 -d 6 -p rtProtoDV -e 7 -c 0 -i 41 -a 0 -x {3.2 6.1 -1 ------- null}
- -t 0.04406133552271 -s 3 -d 6 -p rtProtoDV -e 7 -c 0 -i 41 -a 0 -x {3.2 6.1 -1 ------- null}
h -t 0.04406133552271 -s 3 -d 6 -p rtProtoDV -e 7 -c 0 -i 41 -a 0 -x {3.2 6.1 -1 ------- null}
r -t 0.0471247302185826 -s 4 -d 2 -p rtProtoDV -e 7 -c 0 -i 24 -a 0 -x {4.1 2.1 -1 ------- null}
r -t 0.0471247302185826 -s 4 -d 5 -p rtProtoDV -e 7 -c 0 -i 25 -a 0 -x {4.1 5.1 -1 ------- null}
+ -t 0.0471247302185826 -s 5 -d 4 -p rtProtoDV -e 7 -c 0 -i 42 -a 0 -x {5.1 4.1 -1 ------- null}
- -t 0.0471247302185826 -s 5 -d 4 -p rtProtoDV -e 7 -c 0 -i 42 -a 0 -x {5.1 4.1 -1 ------- null}
h -t 0.0471247302185826 -s 5 -d 4 -p rtProtoDV -e 7 -c 0 -i 42 -a 0 -x {5.1 4.1 -1 ------- null}
+ -t 0.0471247302185826 -s 5 -d 6 -p rtProtoDV -e 7 -c 0 -i 43 -a 0 -x {5.1 6.1 -1 ------- null}
- -t 0.0471247302185826 -s 5 -d 6 -p rtProtoDV -e 7 -c 0 -i 43 -a 0 -x {5.1 6.1 -1 ------- null}
h -t 0.0471247302185826 -s 5 -d 6 -p rtProtoDV -e 7 -c 0 -i 43 -a 0 -x {5.1 6.1 -1 ------- null}
r -t 0.0471247302185826 -s 1 -d 0 -p rtProtoDV -e 7 -c 0 -i 26 -a 0 -x {1.1 0.2 -1 ------- null}
+ -t 0.0471247302185826 -s 0 -d 1 -p rtProtoDV -e 7 -c 0 -i 44 -a 0 -x {0.2 1.1 -1 ------- null}
- -t 0.0471247302185826 -s 0 -d 1 -p rtProtoDV -e 7 -c 0 -i 44 -a 0 -x {0.2 1.1 -1 ------- null}
h -t 0.0471247302185826 -s 0 -d 1 -p rtProtoDV -e 7 -c 0 -i 44 -a 0 -x {0.2 1.1 -1 ------- null}
+ -t 0.0471247302185826 -s 0 -d 2 -p rtProtoDV -e 7 -c 0 -i 45 -a 0 -x {0.2 2.1 -1 ------- null}
- -t 0.0471247302185826 -s 0 -d 2 -p rtProtoDV -e 7 -c 0 -i 45 -a 0 -x {0.2 2.1 -1 ------- null}
h -t 0.0471247302185826 -s 0 -d 2 -p rtProtoDV -e 7 -c 0 -i 45 -a 0 -x {0.2 2.1 -1 ------- null}
r -t 0.0471247302185826 -s 1 -d 2 -p rtProtoDV -e 7 -c 0 -i 27 -a 0 -x {1.1 2.1 -1 ------- null}
+ -t 0.0471247302185826 -s 2 -d 0 -p rtProtoDV -e 7 -c 0 -i 46 -a 0 -x {2.1 0.2 -1 ------- null}
- -t 0.0471247302185826 -s 2 -d 0 -p rtProtoDV -e 7 -c 0 -i 46 -a 0 -x {2.1 0.2 -1 ------- null}
h -t 0.0471247302185826 -s 2 -d 0 -p rtProtoDV -e 7 -c 0 -i 46 -a 0 -x {2.1 0.2 -1 ------- null}
+ -t 0.0471247302185826 -s 2 -d 1 -p rtProtoDV -e 7 -c 0 -i 47 -a 0 -x {2.1 1.1 -1 ------- null}
- -t 0.0471247302185826 -s 2 -d 1 -p rtProtoDV -e 7 -c 0 -i 47 -a 0 -x {2.1 1.1 -1 ------- null}
h -t 0.0471247302185826 -s 2 -d 1 -p rtProtoDV -e 7 -c 0 -i 47 -a 0 -x {2.1 1.1 -1 ------- null}
+ -t 0.0471247302185826 -s 2 -d 4 -p rtProtoDV -e 7 -c 0 -i 48 -a 0 -x {2.1 4.1 -1 ------- null}
- -t 0.0471247302185826 -s 2 -d 4 -p rtProtoDV -e 7 -c 0 -i 48 -a 0 -x {2.1 4.1 -1 ------- null}
h -t 0.0471247302185826 -s 2 -d 4 -p rtProtoDV -e 7 -c 0 -i 48 -a 0 -x {2.1 4.1 -1 ------- null}
r -t 0.0471247302185826 -s 1 -d 3 -p rtProtoDV -e 7 -c 0 -i 28 -a 0 -x {1.1 3.2 -1 ------- null}
r -t 0.0471247302185826 -s 6 -d 3 -p rtProtoDV -e 7 -c 0 -i 29 -a 0 -x {6.1 3.2 -1 ------- null}
+ -t 0.0471247302185826 -s 3 -d 1 -p rtProtoDV -e 7 -c 0 -i 49 -a 0 -x {3.2 1.1 -1 ------- null}
- -t 0.0471247302185826 -s 3 -d 1 -p rtProtoDV -e 7 -c 0 -i 49 -a 0 -x {3.2 1.1 -1 ------- null}
h -t 0.0471247302185826 -s 3 -d 1 -p rtProtoDV -e 7 -c 0 -i 49 -a 0 -x {3.2 1.1 -1 ------- null}
+ -t 0.0471247302185826 -s 3 -d 6 -p rtProtoDV -e 7 -c 0 -i 50 -a 0 -x {3.2 6.1 -1 ------- null}
- -t 0.0471247302185826 -s 3 -d 6 -p rtProtoDV -e 7 -c 0 -i 50 -a 0 -x {3.2 6.1 -1 ------- null}
h -t 0.0471247302185826 -s 3 -d 6 -p rtProtoDV -e 7 -c 0 -i 50 -a 0 -x {3.2 6.1 -1 ------- null}
r -t 0.0471247302185826 -s 6 -d 5 -p rtProtoDV -e 7 -c 0 -i 30 -a 0 -x {6.1 5.1 -1 ------- null}
+ -t 0.0471247302185826 -s 5 -d 4 -p rtProtoDV -e 7 -c 0 -i 51 -a 0 -x {5.1 4.1 -1 ------- null}
+ -t 0.0471247302185826 -s 5 -d 6 -p rtProtoDV -e 7 -c 0 -i 52 -a 0 -x {5.1 6.1 -1 ------- null}
r -t 0.0471303302185826 -s 0 -d 1 -p rtProtoDV -e 7 -c 0 -i 35 -a 0 -x {0.2 1.1 -1 ------- null}
r -t 0.0471303302185826 -s 0 -d 2 -p rtProtoDV -e 7 -c 0 -i 36 -a 0 -x {0.2 2.1 -1 ------- null}
r -t 0.0471303302185826 -s 4 -d 2 -p rtProtoDV -e 7 -c 0 -i 31 -a 0 -x {4.1 2.1 -1 ------- null}
r -t 0.0471303302185826 -s 4 -d 5 -p rtProtoDV -e 7 -c 0 -i 32 -a 0 -x {4.1 5.1 -1 ------- null}
r -t 0.0471303302185826 -s 1 -d 0 -p rtProtoDV -e 7 -c 0 -i 37 -a 0 -x {1.1 0.2 -1 ------- null}
r -t 0.0471303302185826 -s 1 -d 2 -p rtProtoDV -e 7 -c 0 -i 38 -a 0 -x {1.1 2.1 -1 ------- null}
r -t 0.0471303302185826 -s 1 -d 3 -p rtProtoDV -e 7 -c 0 -i 39 -a 0 -x {1.1 3.2 -1 ------- null}
r -t 0.0471303302185826 -s 6 -d 3 -p rtProtoDV -e 7 -c 0 -i 33 -a 0 -x {6.1 3.2 -1 ------- null}
r -t 0.0471303302185826 -s 6 -d 5 -p rtProtoDV -e 7 -c 0 -i 34 -a 0 -x {6.1 5.1 -1 ------- null}
- -t 0.0471303302185826 -s 5 -d 4 -p rtProtoDV -e 7 -c 0 -i 51 -a 0 -x {5.1 4.1 -1 ------- null}
h -t 0.0471303302185826 -s 5 -d 4 -p rtProtoDV -e 7 -c 0 -i 51 -a 0 -x {5.1 4.1 -1 ------- null}
- -t 0.0471303302185826 -s 5 -d 6 -p rtProtoDV -e 7 -c 0 -i 52 -a 0 -x {5.1 6.1 -1 ------- null}
h -t 0.0471303302185826 -s 5 -d 6 -p rtProtoDV -e 7 -c 0 -i 52 -a 0 -x {5.1 6.1 -1 ------- null}
r -t 0.05406693552271 -s 3 -d 1 -p rtProtoDV -e 7 -c 0 -i 40 -a 0 -x {3.2 1.1 -1 ------- null}
r -t 0.05406693552271 -s 3 -d 6 -p rtProtoDV -e 7 -c 0 -i 41 -a 0 -x {3.2 6.1 -1 ------- null}
r -t 0.0571303302185826 -s 5 -d 4 -p rtProtoDV -e 7 -c 0 -i 42 -a 0 -x {5.1 4.1 -1 ------- null}
r -t 0.0571303302185826 -s 5 -d 6 -p rtProtoDV -e 7 -c 0 -i 43 -a 0 -x {5.1 6.1 -1 ------- null}
r -t 0.0571303302185826 -s 0 -d 1 -p rtProtoDV -e 7 -c 0 -i 44 -a 0 -x {0.2 1.1 -1 ------- null}
r -t 0.0571303302185826 -s 0 -d 2 -p rtProtoDV -e 7 -c 0 -i 45 -a 0 -x {0.2 2.1 -1 ------- null}
r -t 0.0571303302185826 -s 2 -d 0 -p rtProtoDV -e 7 -c 0 -i 46 -a 0 -x {2.1 0.2 -1 ------- null}
r -t 0.0571303302185826 -s 2 -d 1 -p rtProtoDV -e 7 -c 0 -i 47 -a 0 -x {2.1 1.1 -1 ------- null}
r -t 0.0571303302185826 -s 2 -d 4 -p rtProtoDV -e 7 -c 0 -i 48 -a 0 -x {2.1 4.1 -1 ------- null}
r -t 0.0571303302185826 -s 3 -d 1 -p rtProtoDV -e 7 -c 0 -i 49 -a 0 -x {3.2 1.1 -1 ------- null}
r -t 0.0571303302185826 -s 3 -d 6 -p rtProtoDV -e 7 -c 0 -i 50 -a 0 -x {3.2 6.1 -1 ------- null}
r -t 0.0571359302185826 -s 5 -d 4 -p rtProtoDV -e 7 -c 0 -i 51 -a 0 -x {5.1 4.1 -1 ------- null}
r -t 0.0571359302185826 -s 5 -d 6 -p rtProtoDV -e 7 -c 0 -i 52 -a 0 -x {5.1 6.1 -1 ------- null}
+ -t 0.156480885882155 -s 6 -d 3 -p rtProtoDV -e 7 -c 0 -i 53 -a 0 -x {6.1 3.2 -1 ------- null}
- -t 0.156480885882155 -s 6 -d 3 -p rtProtoDV -e 7 -c 0 -i 53 -a 0 -x {6.1 3.2 -1 ------- null}
h -t 0.156480885882155 -s 6 -d 3 -p rtProtoDV -e 7 -c 0 -i 53 -a 0 -x {6.1 3.2 -1 ------- null}
+ -t 0.156480885882155 -s 6 -d 5 -p rtProtoDV -e 7 -c 0 -i 54 -a 0 -x {6.1 5.1 -1 ------- null}
- -t 0.156480885882155 -s 6 -d 5 -p rtProtoDV -e 7 -c 0 -i 54 -a 0 -x {6.1 5.1 -1 ------- null}
h -t 0.156480885882155 -s 6 -d 5 -p rtProtoDV -e 7 -c 0 -i 54 -a 0 -x {6.1 5.1 -1 ------- null}
r -t 0.166486485882155 -s 6 -d 3 -p rtProtoDV -e 7 -c 0 -i 53 -a 0 -x {6.1 3.2 -1 ------- null}
r -t 0.166486485882155 -s 6 -d 5 -p rtProtoDV -e 7 -c 0 -i 54 -a 0 -x {6.1 5.1 -1 ------- null}
+ -t 0.22058669092161 -s 4 -d 2 -p rtProtoDV -e 7 -c 0 -i 55 -a 0 -x {4.1 2.1 -1 ------- null}
- -t 0.22058669092161 -s 4 -d 2 -p rtProtoDV -e 7 -c 0 -i 55 -a 0 -x {4.1 2.1 -1 ------- null}
h -t 0.22058669092161 -s 4 -d 2 -p rtProtoDV -e 7 -c 0 -i 55 -a 0 -x {4.1 2.1 -1 ------- null}
+ -t 0.22058669092161 -s 4 -d 5 -p rtProtoDV -e 7 -c 0 -i 56 -a 0 -x {4.1 5.1 -1 ------- null}
- -t 0.22058669092161 -s 4 -d 5 -p rtProtoDV -e 7 -c 0 -i 56 -a 0 -x {4.1 5.1 -1 ------- null}
h -t 0.22058669092161 -s 4 -d 5 -p rtProtoDV -e 7 -c 0 -i 56 -a 0 -x {4.1 5.1 -1 ------- null}
r -t 0.23059229092161 -s 4 -d 2 -p rtProtoDV -e 7 -c 0 -i 55 -a 0 -x {4.1 2.1 -1 ------- null}
r -t 0.23059229092161 -s 4 -d 5 -p rtProtoDV -e 7 -c 0 -i 56 -a 0 -x {4.1 5.1 -1 ------- null}
+ -t 0.277940357931862 -s 1 -d 0 -p rtProtoDV -e 7 -c 0 -i 57 -a 0 -x {1.1 0.2 -1 ------- null}
- -t 0.277940357931862 -s 1 -d 0 -p rtProtoDV -e 7 -c 0 -i 57 -a 0 -x {1.1 0.2 -1 ------- null}
h -t 0.277940357931862 -s 1 -d 0 -p rtProtoDV -e 7 -c 0 -i 57 -a 0 -x {1.1 0.2 -1 ------- null}
+ -t 0.277940357931862 -s 1 -d 2 -p rtProtoDV -e 7 -c 0 -i 58 -a 0 -x {1.1 2.1 -1 ------- null}
- -t 0.277940357931862 -s 1 -d 2 -p rtProtoDV -e 7 -c 0 -i 58 -a 0 -x {1.1 2.1 -1 ------- null}
h -t 0.277940357931862 -s 1 -d 2 -p rtProtoDV -e 7 -c 0 -i 58 -a 0 -x {1.1 2.1 -1 ------- null}
+ -t 0.277940357931862 -s 1 -d 3 -p rtProtoDV -e 7 -c 0 -i 59 -a 0 -x {1.1 3.2 -1 ------- null}
- -t 0.277940357931862 -s 1 -d 3 -p rtProtoDV -e 7 -c 0 -i 59 -a 0 -x {1.1 3.2 -1 ------- null}
h -t 0.277940357931862 -s 1 -d 3 -p rtProtoDV -e 7 -c 0 -i 59 -a 0 -x {1.1 3.2 -1 ------- null}
r -t 0.287945957931862 -s 1 -d 0 -p rtProtoDV -e 7 -c 0 -i 57 -a 0 -x {1.1 0.2 -1 ------- null}
r -t 0.287945957931862 -s 1 -d 2 -p rtProtoDV -e 7 -c 0 -i 58 -a 0 -x {1.1 2.1 -1 ------- null}
r -t 0.287945957931862 -s 1 -d 3 -p rtProtoDV -e 7 -c 0 -i 59 -a 0 -x {1.1 3.2 -1 ------- null}
+ -t 0.399577726796073 -s 5 -d 4 -p rtProtoDV -e 7 -c 0 -i 60 -a 0 -x {5.1 4.1 -1 ------- null}
- -t 0.399577726796073 -s 5 -d 4 -p rtProtoDV -e 7 -c 0 -i 60 -a 0 -x {5.1 4.1 -1 ------- null}
h -t 0.399577726796073 -s 5 -d 4 -p rtProtoDV -e 7 -c 0 -i 60 -a 0 -x {5.1 4.1 -1 ------- null}
+ -t 0.399577726796073 -s 5 -d 6 -p rtProtoDV -e 7 -c 0 -i 61 -a 0 -x {5.1 6.1 -1 ------- null}
- -t 0.399577726796073 -s 5 -d 6 -p rtProtoDV -e 7 -c 0 -i 61 -a 0 -x {5.1 6.1 -1 ------- null}
h -t 0.399577726796073 -s 5 -d 6 -p rtProtoDV -e 7 -c 0 -i 61 -a 0 -x {5.1 6.1 -1 ------- null}
r -t 0.409583326796073 -s 5 -d 4 -p rtProtoDV -e 7 -c 0 -i 60 -a 0 -x {5.1 4.1 -1 ------- null}
r -t 0.409583326796073 -s 5 -d 6 -p rtProtoDV -e 7 -c 0 -i 61 -a 0 -x {5.1 6.1 -1 ------- null}
+ -t 1 -s 0 -d 1 -p tcp -e 40 -c 0 -i 62 -a 0 -x {0.0 3.0 0 ------- null}
- -t 1 -s 0 -d 1 -p tcp -e 40 -c 0 -i 62 -a 0 -x {0.0 3.0 0 ------- null}
h -t 1 -s 0 -d 1 -p tcp -e 40 -c 0 -i 62 -a 0 -x {0.0 3.0 -1 ------- null}
r -t 1.010032 -s 0 -d 1 -p tcp -e 40 -c 0 -i 62 -a 0 -x {0.0 3.0 0 ------- null}
+ -t 1.010032 -s 1 -d 3 -p tcp -e 40 -c 0 -i 62 -a 0 -x {0.0 3.0 0 ------- null}
- -t 1.010032 -s 1 -d 3 -p tcp -e 40 -c 0 -i 62 -a 0 -x {0.0 3.0 0 ------- null}
h -t 1.010032 -s 1 -d 3 -p tcp -e 40 -c 0 -i 62 -a 0 -x {0.0 3.0 -1 ------- null}
r -t 1.020064 -s 1 -d 3 -p tcp -e 40 -c 0 -i 62 -a 0 -x {0.0 3.0 0 ------- null}
+ -t 1.020064 -s 3 -d 1 -p ack -e 40 -c 0 -i 63 -a 0 -x {3.0 0.0 0 ------- null}
- -t 1.020064 -s 3 -d 1 -p ack -e 40 -c 0 -i 63 -a 0 -x {3.0 0.0 0 ------- null}
h -t 1.020064 -s 3 -d 1 -p ack -e 40 -c 0 -i 63 -a 0 -x {3.0 0.0 -1 ------- null}
r -t 1.030096 -s 3 -d 1 -p ack -e 40 -c 0 -i 63 -a 0 -x {3.0 0.0 0 ------- null}
+ -t 1.030096 -s 1 -d 0 -p ack -e 40 -c 0 -i 63 -a 0 -x {3.0 0.0 0 ------- null}
- -t 1.030096 -s 1 -d 0 -p ack -e 40 -c 0 -i 63 -a 0 -x {3.0 0.0 0 ------- null}
h -t 1.030096 -s 1 -d 0 -p ack -e 40 -c 0 -i 63 -a 0 -x {3.0 0.0 -1 ------- null}
r -t 1.040128 -s 1 -d 0 -p ack -e 40 -c 0 -i 63 -a 0 -x {3.0 0.0 0 ------- null}
+ -t 1.040128 -s 0 -d 1 -p tcp -e 1040 -c 0 -i 64 -a 0 -x {0.0 3.0 1 ------- null}
- -t 1.040128 -s 0 -d 1 -p tcp -e 1040 -c 0 -i 64 -a 0 -x {0.0 3.0 1 ------- null}
h -t 1.040128 -s 0 -d 1 -p tcp -e 1040 -c 0 -i 64 -a 0 -x {0.0 3.0 -1 ------- null}
+ -t 1.040128 -s 0 -d 1 -p tcp -e 1040 -c 0 -i 65 -a 0 -x {0.0 3.0 2 ------- null}
- -t 1.04096 -s 0 -d 1 -p tcp -e 1040 -c 0 -i 65 -a 0 -x {0.0 3.0 2 ------- null}
h -t 1.04096 -s 0 -d 1 -p tcp -e 1040 -c 0 -i 65 -a 0 -x {0.0 3.0 -1 ------- null}
r -t 1.05096 -s 0 -d 1 -p tcp -e 1040 -c 0 -i 64 -a 0 -x {0.0 3.0 1 ------- null}
+ -t 1.05096 -s 1 -d 3 -p tcp -e 1040 -c 0 -i 64 -a 0 -x {0.0 3.0 1 ------- null}
- -t 1.05096 -s 1 -d 3 -p tcp -e 1040 -c 0 -i 64 -a 0 -x {0.0 3.0 1 ------- null}
h -t 1.05096 -s 1 -d 3 -p tcp -e 1040 -c 0 -i 64 -a 0 -x {0.0 3.0 -1 ------- null}
r -t 1.051792 -s 0 -d 1 -p tcp -e 1040 -c 0 -i 65 -a 0 -x {0.0 3.0 2 ------- null}
+ -t 1.051792 -s 1 -d 3 -p tcp -e 1040 -c 0 -i 65 -a 0 -x {0.0 3.0 2 ------- null}
- -t 1.051792 -s 1 -d 3 -p tcp -e 1040 -c 0 -i 65 -a 0 -x {0.0 3.0 2 ------- null}
h -t 1.051792 -s 1 -d 3 -p tcp -e 1040 -c 0 -i 65 -a 0 -x {0.0 3.0 -1 ------- null}
r -t 1.061792 -s 1 -d 3 -p tcp -e 1040 -c 0 -i 64 -a 0 -x {0.0 3.0 1 ------- null}
+ -t 1.061792 -s 3 -d 1 -p ack -e 40 -c 0 -i 66 -a 0 -x {3.0 0.0 1 ------- null}
- -t 1.061792 -s 3 -d 1 -p ack -e 40 -c 0 -i 66 -a 0 -x {3.0 0.0 1 ------- null}
h -t 1.061792 -s 3 -d 1 -p ack -e 40 -c 0 -i 66 -a 0 -x {3.0 0.0 -1 ------- null}
r -t 1.062624 -s 1 -d 3 -p tcp -e 1040 -c 0 -i 65 -a 0 -x {0.0 3.0 2 ------- null}
+ -t 1.062624 -s 3 -d 1 -p ack -e 40 -c 0 -i 67 -a 0 -x {3.0 0.0 2 ------- null}
- -t 1.062624 -s 3 -d 1 -p ack -e 40 -c 0 -i 67 -a 0 -x {3.0 0.0 2 ------- null}
h -t 1.062624 -s 3 -d 1 -p ack -e 40 -c 0 -i 67 -a 0 -x {3.0 0.0 -1 ------- null}
r -t 1.071824 -s 3 -d 1 -p ack -e 40 -c 0 -i 66 -a 0 -x {3.0 0.0 1 ------- null}
+ -t 1.071824 -s 1 -d 0 -p ack -e 40 -c 0 -i 66 -a 0 -x {3.0 0.0 1 ------- null}
- -t 1.071824 -s 1 -d 0 -p ack -e 40 -c 0 -i 66 -a 0 -x {3.0 0.0 1 ------- null}
h -t 1.071824 -s 1 -d 0 -p ack -e 40 -c 0 -i 66 -a 0 -x {3.0 0.0 -1 ------- null}
r -t 1.072656 -s 3 -d 1 -p ack -e 40 -c 0 -i 67 -a 0 -x {3.0 0.0 2 ------- null}
+ -t 1.072656 -s 1 -d 0 -p ack -e 40 -c 0 -i 67 -a 0 -x {3.0 0.0 2 ------- null}
- -t 1.072656 -s 1 -d 0 -p ack -e 40 -c 0 -i 67 -a 0 -x {3.0 0.0 2 ------- null}
h -t 1.072656 -s 1 -d 0 -p ack -e 40 -c 0 -i 67 -a 0 -x {3.0 0.0 -1 ------- null}
r -t 1.081856 -s 1 -d 0 -p ack -e 40 -c 0 -i 66 -a 0 -x {3.0 0.0 1 ------- null}
+ -t 1.081856 -s 0 -d 1 -p tcp -e 1040 -c 0 -i 68 -a 0 -x {0.0 3.0 3 ------- null}
- -t 1.081856 -s 0 -d 1 -p tcp -e 1040 -c 0 -i 68 -a 0 -x {0.0 3.0 3 ------- null}
h -t 1.081856 -s 0 -d 1 -p tcp -e 1040 -c 0 -i 68 -a 0 -x {0.0 3.0 -1 ------- null}
+ -t 1.081856 -s 0 -d 1 -p tcp -e 1040 -c 0 -i 69 -a 0 -x {0.0 3.0 4 ------- null}
r -t 1.082688 -s 1 -d 0 -p ack -e 40 -c 0 -i 67 -a 0 -x {3.0 0.0 2 ------- null}
+ -t 1.082688 -s 0 -d 1 -p tcp -e 1040 -c 0 -i 70 -a 0 -x {0.0 3.0 5 ------- null}
+ -t 1.082688 -s 0 -d 1 -p tcp -e 1040 -c 0 -i 71 -a 0 -x {0.0 3.0 6 ------- null}
- -t 1.082688 -s 0 -d 1 -p tcp -e 1040 -c 0 -i 69 -a 0 -x {0.0 3.0 4 ------- null}
h -t 1.082688 -s 0 -d 1 -p tcp -e 1040 -c 0 -i 69 -a 0 -x {0.0 3.0 -1 ------- null}
- -t 1.08352 -s 0 -d 1 -p tcp -e 1040 -c 0 -i 70 -a 0 -x {0.0 3.0 5 ------- null}
h -t 1.08352 -s 0 -d 1 -p tcp -e 1040 -c 0 -i 70 -a 0 -x {0.0 3.0 -1 ------- null}
- -t 1.084352 -s 0 -d 1 -p tcp -e 1040 -c 0 -i 71 -a 0 -x {0.0 3.0 6 ------- null}
h -t 1.084352 -s 0 -d 1 -p tcp -e 1040 -c 0 -i 71 -a 0 -x {0.0 3.0 -1 ------- null}