V -t * -v 1.0a5 -a 0
A -t * -n 1 -p 0 -o 0x7fffffff -c 30 -a 1
A -t * -h 1 -m 1073741823 -s 0
c -t * -i 1 -n Red
c -t * -i 2 -n Green
c -t * -i 3 -n Blue
n -t * -a 4 -s 4 -S UP -v circle -c black -i black
n -t * -a 0 -s 0 -S UP -v circle -c black -i black
n -t * -a 1 -s 1 -S UP -v circle -c black -i black
n -t * -a 2 -s 2 -S UP -v circle -c black -i black
n -t * -a 3 -s 3 -S UP -v circle -c black -i black
l -t * -s 0 -d 3 -S UP -r 1000000 -D 0.10000000000000001 -c black
l -t * -s 1 -d 3 -S UP -r 1000000 -D 0.10000000000000001 -c black
l -t * -s 2 -d 3 -S UP -r 1000000 -D 0.10000000000000001 -c black
l -t * -s 3 -d 4 -S UP -r 1000000 -D 0.10000000000000001 -c black
+ -t 10.2401997920588 -s 2 -d 3 -p exp -e 200 -c 3 -i 0 -a 3 -x {2.0 4.2 0 ------- null}
- -t 10.2401997920588 -s 2 -d 3 -p exp -e 200 -c 3 -i 0 -a 3 -x {2.0 4.2 0 ------- null}
h -t 10.2401997920588 -s 2 -d 3 -p exp -e 200 -c 3 -i 0 -a 3 -x {2.0 4.2 -1 ------- null}
+ -t 10.2561997920588 -s 2 -d 3 -p exp -e 200 -c 3 -i 1 -a 3 -x {2.0 4.2 1 ------- null}
- -t 10.2561997920588 -s 2 -d 3 -p exp -e 200 -c 3 -i 1 -a 3 -x {2.0 4.2 1 ------- null}
h -t 10.2561997920588 -s 2 -d 3 -p exp -e 200 -c 3 -i 1 -a 3 -x {2.0 4.2 -1 ------- null}
+ -t 10.2721997920588 -s 2 -d 3 -p exp -e 200 -c 3 -i 2 -a 3 -x {2.0 4.2 2 ------- null}
- -t 10.2721997920588 -s 2 -d 3 -p exp -e 200 -c 3 -i 2 -a 3 -x {2.0 4.2 2 ------- null}
h -t 10.2721997920588 -s 2 -d 3 -p exp -e 200 -c 3 -i 2 -a 3 -x {2.0 4.2 -1 ------- null}
+ -t 10.2881997920588 -s 2 -d 3 -p exp -e 200 -c 3 -i 3 -a 3 -x {2.0 4.2 3 ------- null}
- -t 10.2881997920588 -s 2 -d 3 -p exp -e 200 -c 3 -i 3 -a 3 -x {2.0 4.2 3 ------- null}
h -t 10.2881997920588 -s 2 -d 3 -p exp -e 200 -c 3 -i 3 -a 3 -x {2.0 4.2 -1 ------- null}
+ -t 10.3041997920588 -s 2 -d 3 -p exp -e 200 -c 3 -i 4 -a 3 -x {2.0 4.2 4 ------- null}
- -t 10.3041997920588 -s 2 -d 3 -p exp -e 200 -c 3 -i 4 -a 3 -x {2.0 4.2 4 ------- null}
h -t 10.3041997920588 -s 2 -d 3 -p exp -e 200 -c 3 -i 4 -a 3 -x {2.0 4.2 -1 ------- null}
+ -t 10.3201997920588 -s 2 -d 3 -p exp -e 200 -c 3 -i 5 -a 3 -x {2.0 4.2 5 ------- null}
- -t 10.3201997920588 -s 2 -d 3 -p exp -e 200 -c 3 -i 5 -a 3 -x {2.0 4.2 5 ------- null}
h -t 10.3201997920588 -s 2 -d 3 -p exp -e 200 -c 3 -i 5 -a 3 -x {2.0 4.2 -1 ------- null}
+ -t 10.3361997920588 -s 2 -d 3 -p exp -e 200 -c 3 -i 6 -a 3 -x {2.0 4.2 6 ------- null}
- -t 10.3361997920588 -s 2 -d 3 -p exp -e 200 -c 3 -i 6 -a 3 -x {2.0 4.2 6 ------- null}
h -t 10.3361997920588 -s 2 -d 3 -p exp -e 200 -c 3 -i 6 -a 3 -x {2.0 4.2 -1 ------- null}
r -t 10.3417997920588 -s 2 -d 3 -p exp -e 200 -c 3 -i 0 -a 3 -x {2.0 4.2 0 ------- null}
+ -t 10.3417997920588 -s 3 -d 4 -p exp -e 200 -c 3 -i 0 -a 3 -x {2.0 4.2 0 ------- null}
- -t 10.3417997920588 -s 3 -d 4 -p exp -e 200 -c 3 -i 0 -a 3 -x {2.0 4.2 0 ------- null}
h -t 10.3417997920588 -s 3 -d 4 -p exp -e 200 -c 3 -i 0 -a 3 -x {2.0 4.2 -1 ------- null}
+ -t 10.3521997920588 -s 2 -d 3 -p exp -e 200 -c 3 -i 7 -a 3 -x {2.0 4.2 7 ------- null}
- -t 10.3521997920588 -s 2 -d 3 -p exp -e 200 -c 3 -i 7 -a 3 -x {2.0 4.2 7 ------- null}
h -t 10.3521997920588 -s 2 -d 3 -p exp -e 200 -c 3 -i 7 -a 3 -x {2.0 4.2 -1 ------- null}
r -t 10.3577997920588 -s 2 -d 3 -p exp -e 200 -c 3 -i 1 -a 3 -x {2.0 4.2 1 ------- null}
+ -t 10.3577997920588 -s 3 -d 4 -p exp -e 200 -c 3 -i 1 -a 3 -x {2.0 4.2 1 ------- null}
- -t 10.3577997920588 -s 3 -d 4 -p exp -e 200 -c 3 -i 1 -a 3 -x {2.0 4.2 1 ------- null}
h -t 10.3577997920588 -s 3 -d 4 -p exp -e 200 -c 3 -i 1 -a 3 -x {2.0 4.2 -1 ------- null}
+ -t 10.3681997920588 -s 2 -d 3 -p exp -e 200 -c 3 -i 8 -a 3 -x {2.0 4.2 8 ------- null}
- -t 10.3681997920588 -s 2 -d 3 -p exp -e 200 -c 3 -i 8 -a 3 -x {2.0 4.2 8 ------- null}
h -t 10.3681997920588 -s 2 -d 3 -p exp -e 200 -c 3 -i 8 -a 3 -x {2.0 4.2 -1 ------- null}
r -t 10.3737997920588 -s 2 -d 3 -p exp -e 200 -c 3 -i 2 -a 3 -x {2.0 4.2 2 ------- null}
+ -t 10.3737997920588 -s 3 -d 4 -p exp -e 200 -c 3 -i 2 -a 3 -x {2.0 4.2 2 ------- null}
- -t 10.3737997920588 -s 3 -d 4 -p exp -e 200 -c 3 -i 2 -a 3 -x {2.0 4.2 2 ------- null}
h -t 10.3737997920588 -s 3 -d 4 -p exp -e 200 -c 3 -i 2 -a 3 -x {2.0 4.2 -1 ------- null}
+ -t 10.3841997920588 -s 2 -d 3 -p exp -e 200 -c 3 -i 9 -a 3 -x {2.0 4.2 9 ------- null}
- -t 10.3841997920588 -s 2 -d 3 -p exp -e 200 -c 3 -i 9 -a 3 -x {2.0 4.2 9 ------- null}
h -t 10.3841997920588 -s 2 -d 3 -p exp -e 200 -c 3 -i 9 -a 3 -x {2.0 4.2 -1 ------- null}
r -t 10.3897997920588 -s 2 -d 3 -p exp -e 200 -c 3 -i 3 -a 3 -x {2.0 4.2 3 ------- null}
+ -t 10.3897997920588 -s 3 -d 4 -p exp -e 200 -c 3 -i 3 -a 3 -x {2.0 4.2 3 ------- null}
- -t 10.3897997920588 -s 3 -d 4 -p exp -e 200 -c 3 -i 3 -a 3 -x {2.0 4.2 3 ------- null}
h -t 10.3897997920588 -s 3 -d 4 -p exp -e 200 -c 3 -i 3 -a 3 -x {2.0 4.2 -1 ------- null}
+ -t 10.4001997920588 -s 2 -d 3 -p exp -e 200 -c 3 -i 10 -a 3 -x {2.0 4.2 10 ------- null}
- -t 10.4001997920588 -s 2 -d 3 -p exp -e 200 -c 3 -i 10 -a 3 -x {2.0 4.2 10 ------- null}
h -t 10.4001997920588 -s 2 -d 3 -p exp -e 200 -c 3 -i 10 -a 3 -x {2.0 4.2 -1 ------- null}
r -t 10.4057997920588 -s 2 -d 3 -p exp -e 200 -c 3 -i 4 -a 3 -x {2.0 4.2 4 ------- null}
+ -t 10.4057997920588 -s 3 -d 4 -p exp -e 200 -c 3 -i 4 -a 3 -x {2.0 4.2 4 ------- null}
- -t 10.4057997920588 -s 3 -d 4 -p exp -e 200 -c 3 -i 4 -a 3 -x {2.0 4.2 4 ------- null}
h -t 10.4057997920588 -s 3 -d 4 -p exp -e 200 -c 3 -i 4 -a 3 -x {2.0 4.2 -1 ------- null}
+ -t 10.4161997920588 -s 2 -d 3 -p exp -e 200 -c 3 -i 11 -a 3 -x {2.0 4.2 11 ------- null}
- -t 10.4161997920588 -s 2 -d 3 -p exp -e 200 -c 3 -i 11 -a 3 -x {2.0 4.2 11 ------- null}
h -t 10.4161997920588 -s 2 -d 3 -p exp -e 200 -c 3 -i 11 -a 3 -x {2.0 4.2 -1 ------- null}
r -t 10.4217997920588 -s 2 -d 3 -p exp -e 200 -c 3 -i 5 -a 3 -x {2.0 4.2 5 ------- null}
+ -t 10.4217997920588 -s 3 -d 4 -p exp -e 200 -c 3 -i 5 -a 3 -x {2.0 4.2 5 ------- null}
- -t 10.4217997920588 -s 3 -d 4 -p exp -e 200 -c 3 -i 5 -a 3 -x {2.0 4.2 5 ------- null}
h -t 10.4217997920588 -s 3 -d 4 -p exp -e 200 -c 3 -i 5 -a 3 -x {2.0 4.2 -1 ------- null}
+ -t 10.4321997920588 -s 2 -d 3 -p exp -e 200 -c 3 -i 12 -a 3 -x {2.0 4.2 12 ------- null}
- -t 10.4321997920588 -s 2 -d 3 -p exp -e 200 -c 3 -i 12 -a 3 -x {2.0 4.2 12 ------- null}
h -t 10.4321997920588 -s 2 -d 3 -p exp -e 200 -c 3 -i 12 -a 3 -x {2.0 4.2 -1 ------- null}
r -t 10.4377997920588 -s 2 -d 3 -p exp -e 200 -c 3 -i 6 -a 3 -x {2.0 4.2 6 ------- null}
+ -t 10.4377997920588 -s 3 -d 4 -p exp -e 200 -c 3 -i 6 -a 3 -x {2.0 4.2 6 ------- null}
- -t 10.4377997920588 -s 3 -d 4 -p exp -e 200 -c 3 -i 6 -a 3 -x {2.0 4.2 6 ------- null}
h -t 10.4377997920588 -s 3 -d 4 -p exp -e 200 -c 3 -i 6 -a 3 -x {2.0 4.2 -1 ------- null}
r -t 10.4433997920588 -s 3 -d 4 -p exp -e 200 -c 3 -i 0 -a 3 -x {2.0 4.2 0 ------- null}
+ -t 10.4481997920588 -s 2 -d 3 -p exp -e 200 -c 3 -i 13 -a 3 -x {2.0 4.2 13 ------- null}
- -t 10.4481997920588 -s 2 -d 3 -p exp -e 200 -c 3 -i 13 -a 3 -x {2.0 4.2 13 ------- null}
h -t 10.4481997920588 -s 2 -d 3 -p exp -e 200 -c 3 -i 13 -a 3 -x {2.0 4.2 -1 ------- null}
r -t 10.4537997920588 -s 2 -d 3 -p exp -e 200 -c 3 -i 7 -a 3 -x {2.0 4.2 7 ------- null}
+ -t 10.4537997920588 -s 3 -d 4 -p exp -e 200 -c 3 -i 7 -a 3 -x {2.0 4.2 7 ------- null}
- -t 10.4537997920588 -s 3 -d 4 -p exp -e 200 -c 3 -i 7 -a 3 -x {2.0 4.2 7 ------- null}
h -t 10.4537997920588 -s 3 -d 4 -p exp -e 200 -c 3 -i 7 -a 3 -x {2.0 4.2 -1 ------- null}
r -t 10.4593997920588 -s 3 -d 4 -p exp -e 200 -c 3 -i 1 -a 3 -x {2.0 4.2 1 ------- null}
+ -t 10.4641997920588 -s 2 -d 3 -p exp -e 200 -c 3 -i 14 -a 3 -x {2.0 4.2 14 ------- null}
- -t 10.4641997920588 -s 2 -d 3 -p exp -e 200 -c 3 -i 14 -a 3 -x {2.0 4.2 14 ------- null}
h -t 10.4641997920588 -s 2 -d 3 -p exp -e 200 -c 3 -i 14 -a 3 -x {2.0 4.2 -1 ------- null}
r -t 10.4697997920588 -s 2 -d 3 -p exp -e 200 -c 3 -i 8 -a 3 -x {2.0 4.2 8 ------- null}
+ -t 10.4697997920588 -s 3 -d 4 -p exp -e 200 -c 3 -i 8 -a 3 -x {2.0 4.2 8 ------- null}
- -t 10.4697997920588 -s 3 -d 4 -p exp -e 200 -c 3 -i 8 -a 3 -x {2.0 4.2 8 ------- null}
h -t 10.4697997920588 -s 3 -d 4 -p exp -e 200 -c 3 -i 8 -a 3 -x {2.0 4.2 -1 ------- null}
r -t 10.4753997920588 -s 3 -d 4 -p exp -e 200 -c 3 -i 2 -a 3 -x {2.0 4.2 2 ------- null}
+ -t 10.4801997920588 -s 2 -d 3 -p exp -e 200 -c 3 -i 15 -a 3 -x {2.0 4.2 15 ------- null}
- -t 10.4801997920588 -s 2 -d 3 -p exp -e 200 -c 3 -i 15 -a 3 -x {2.0 4.2 15 ------- null}
h -t 10.4801997920588 -s 2 -d 3 -p exp -e 200 -c 3 -i 15 -a 3 -x {2.0 4.2 -1 ------- null}
r -t 10.4857997920588 -s 2 -d 3 -p exp -e 200 -c 3 -i 9 -a 3 -x {2.0 4.2 9 ------- null}
+ -t 10.4857997920588 -s 3 -d 4 -p exp -e 200 -c 3 -i 9 -a 3 -x {2.0 4.2 9 ------- null}
- -t 10.4857997920588 -s 3 -d 4 -p exp -e 200 -c 3 -i 9 -a 3 -x {2.0 4.2 9 ------- null}
h -t 10.4857997920588 -s 3 -d 4 -p exp -e 200 -c 3 -i 9 -a 3 -x {2.0 4.2 -1 ------- null}
r -t 10.4913997920588 -s 3 -d 4 -p exp -e 200 -c 3 -i 3 -a 3 -x {2.0 4.2 3 ------- null}
+ -t 10.4961997920588 -s 2 -d 3 -p exp -e 200 -c 3 -i 16 -a 3 -x {2.0 4.2 16 ------- null}
- -t 10.4961997920588 -s 2 -d 3 -p exp -e 200 -c 3 -i 16 -a 3 -x {2.0 4.2 16 ------- null}
h -t 10.4961997920588 -s 2 -d 3 -p exp -e 200 -c 3 -i 16 -a 3 -x {2.0 4.2 -1 ------- null}
r -t 10.5017997920588 -s 2 -d 3 -p exp -e 200 -c 3 -i 10 -a 3 -x {2.0 4.2 10 ------- null}
+ -t 10.5017997920588 -s 3 -d 4 -p exp -e 200 -c 3 -i 10 -a 3 -x {2.0 4.2 10 ------- null}
- -t 10.5017997920588 -s 3 -d 4 -p exp -e 200 -c 3 -i 10 -a 3 -x {2.0 4.2 10 ------- null}
h -t 10.5017997920588 -s 3 -d 4 -p exp -e 200 -c 3 -i 10 -a 3 -x {2.0 4.2 -1 ------- null}
r -t 10.5073997920588 -s 3 -d 4 -p exp -e 200 -c 3 -i 4 -a 3 -x {2.0 4.2 4 ------- null}
+ -t 10.5121997920588 -s 2 -d 3 -p exp -e 200 -c 3 -i 17 -a 3 -x {2.0 4.2 17 ------- null}
- -t 10.5121997920588 -s 2 -d 3 -p exp -e 200 -c 3 -i 17 -a 3 -x {2.0 4.2 17 ------- null}
h -t 10.5121997920588 -s 2 -d 3 -p exp -e 200 -c 3 -i 17 -a 3 -x {2.0 4.2 -1 ------- null}
r -t 10.5177997920588 -s 2 -d 3 -p exp -e 200 -c 3 -i 11 -a 3 -x {2.0 4.2 11 ------- null}
+ -t 10.5177997920588 -s 3 -d 4 -p exp -e 200 -c 3 -i 11 -a 3 -x {2.0 4.2 11 ------- null}
- -t 10.5177997920588 -s 3 -d 4 -p exp -e 200 -c 3 -i 11 -a 3 -x {2.0 4.2 11 ------- null}
h -t 10.5177997920588 -s 3 -d 4 -p exp -e 200 -c 3 -i 11 -a 3 -x {2.0 4.2 -1 ------- null}
r -t 10.5233997920588 -s 3 -d 4 -p exp -e 200 -c 3 -i 5 -a 3 -x {2.0 4.2 5 ------- null}
+ -t 10.5281997920588 -s 2 -d 3 -p exp -e 200 -c 3 -i 18 -a 3 -x {2.0 4.2 18 ------- null}
- -t 10.5281997920588 -s 2 -d 3 -p exp -e 200 -c 3 -i 18 -a 3 -x {2.0 4.2 18 ------- null}
h -t 10.5281997920588 -s 2 -d 3 -p exp -e 200 -c 3 -i 18 -a 3 -x {2.0 4.2 -1 ------- null}
r -t 10.5337997920588 -s 2 -d 3 -p exp -e 200 -c 3 -i 12 -a 3 -x {2.0 4.2 12 ------- null}
+ -t 10.5337997920588 -s 3 -d 4 -p exp -e 200 -c 3 -i 12 -a 3 -x {2.0 4.2 12 ------- null}
- -t 10.5337997920588 -s 3 -d 4 -p exp -e 200 -c 3 -i 12 -a 3 -x {2.0 4.2 12 ------- null}
h -t 10.5337997920588 -s 3 -d 4 -p exp -e 200 -c 3 -i 12 -a 3 -x {2.0 4.2 -1 ------- null}
r -t 10.5393997920588 -s 3 -d 4 -p exp -e 200 -c 3 -i 6 -a 3 -x {2.0 4.2 6 ------- null}
+ -t 10.5441997920588 -s 2 -d 3 -p exp -e 200 -c 3 -i 19 -a 3 -x {2.0 4.2 19 ------- null}
- -t 10.5441997920588 -s 2 -d 3 -p exp -e 200 -c 3 -i 19 -a 3 -x {2.0 4.2 19 ------- null}
h -t 10.5441997920588 -s 2 -d 3 -p exp -e 200 -c 3 -i 19 -a 3 -x {2.0 4.2 -1 ------- null}
r -t 10.5497997920588 -s 2 -d 3 -p exp -e 200 -c 3 -i 13 -a 3 -x {2.0 4.2 13 ------- null}
+ -t 10.5497997920588 -s 3 -d 4 -p exp -e 200 -c 3 -i 13 -a 3 -x {2.0 4.2 13 ------- null}
- -t 10.5497997920588 -s 3 -d 4 -p exp -e 200 -c 3 -i 13 -a 3 -x {2.0 4.2 13 ------- null}
h -t 10.5497997920588 -s 3 -d 4 -p exp -e 200 -c 3 -i 13 -a 3 -x {2.0 4.2 -1 ------- null}
r -t 10.5553997920588 -s 3 -d 4 -p exp -e 200 -c 3 -i 7 -a 3 -x {2.0 4.2 7 ------- null}
+ -t 10.5601997920588 -s 2 -d 3 -p exp -e 200 -c 3 -i 20 -a 3 -x {2.0 4.2 20 ------- null}
- -t 10.5601997920588 -s 2 -d 3 -p exp -e 200 -c 3 -i 20 -a 3 -x {2.0 4.2 20 ------- null}
h -t 10.5601997920588 -s 2 -d 3 -p exp -e 200 -c 3 -i 20 -a 3 -x {2.0 4.2 -1 ------- null}
r -t 10.5657997920588 -s 2 -d 3 -p exp -e 200 -c 3 -i 14 -a 3 -x {2.0 4.2 14 ------- null}
+ -t 10.5657997920588 -s 3 -d 4 -p exp -e 200 -c 3 -i 14 -a 3 -x {2.0 4.2 14 ------- null}
- -t 10.5657997920588 -s 3 -d 4 -p exp -e 200 -c 3 -i 14 -a 3 -x {2.0 4.2 14 ------- null}
h -t 10.5657997920588 -s 3 -d 4 -p exp -e 200 -c 3 -i 14 -a 3 -x {2.0 4.2 -1 ------- null}
r -t 10.5713997920588 -s 3 -d 4 -p exp -e 200 -c 3 -i 8 -a 3 -x {2.0 4.2 8 ------- null}
+ -t 10.5761997920588 -s 2 -d 3 -p exp -e 200 -c 3 -i 21 -a 3 -x {2.0 4.2 21 ------- null}
- -t 10.5761997920588 -s 2 -d 3 -p exp -e 200 -c 3 -i 21 -a 3 -x {2.0 4.2 21 ------- null}
h -t 10.5761997920588 -s 2 -d 3 -p exp -e 200 -c 3 -i 21 -a 3 -x {2.0 4.2 -1 ------- null}
r -t 10.5817997920588 -s 2 -d 3 -p exp -e 200 -c 3 -i 15 -a 3 -x {2.0 4.2 15 ------- null}
+ -t 10.5817997920588 -s 3 -d 4 -p exp -e 200 -c 3 -i 15 -a 3 -x {2.0 4.2 15 ------- null}
- -t 10.5817997920588 -s 3 -d 4 -p exp -e 200 -c 3 -i 15 -a 3 -x {2.0 4.2 15 ------- null}
h -t 10.5817997920588 -s 3 -d 4 -p exp -e 200 -c 3 -i 15 -a 3 -x {2.0 4.2 -1 ------- null}
r -t 10.5873997920588 -s 3 -d 4 -p exp -e 200 -c 3 -i 9 -a 3 -x {2.0 4.2 9 ------- null}
+ -t 10.5921997920588 -s 2 -d 3 -p exp -e 200 -c 3 -i 22 -a 3 -x {2.0 4.2 22 ------- null}
- -t 10.5921997920588 -s 2 -d 3 -p exp -e 200 -c 3 -i 22 -a 3 -x {2.0 4.2 22 ------- null}
h -t 10.5921997920588 -s 2 -d 3 -p exp -e 200 -c 3 -i 22 -a 3 -x {2.0 4.2 -1 ------- null}
r -t 10.5977997920588 -s 2 -d 3 -p exp -e 200 -c 3 -i 16 -a 3 -x {2.0 4.2 16 ------- null}
+ -t 10.5977997920588 -s 3 -d 4 -p exp -e 200 -c 3 -i 16 -a 3 -x {2.0 4.2 16 ------- null}
- -t 10.5977997920588 -s 3 -d 4 -p exp -e 200 -c 3 -i 16 -a 3 -x {2.0 4.2 16 ------- null}
h -t 10.5977997920588 -s 3 -d 4 -p exp -e 200 -c 3 -i 16 -a 3 -x {2.0 4.2 -1 ------- null}
+ -t 10.6032015473477 -s 0 -d 3 -p exp -e 200 -c 1 -i 23 -a 1 -x {0.0 4.0 0 ------- null}
- -t 10.6032015473477 -s 0 -d 3 -p exp -e 200 -c 1 -i 23 -a 1 -x {0.0 4.0 0 ------- null}
h -t 10.6032015473477 -s 0 -d 3 -p exp -e 200 -c 1 -i 23 -a 1 -x {0.0 4.0 -1 ------- null}
r -t 10.6033997920588 -s 3 -d 4 -p exp -e 200 -c 3 -i 10 -a 3 -x {2.0 4.2 10 ------- null}
+ -t 10.6081997920588 -s 2 -d 3 -p exp -e 200 -c 3 -i 24 -a 3 -x {2.0 4.2 23 ------- null}
- -t 10.6081997920588 -s 2 -d 3 -p exp -e 200 -c 3 -i 24 -a 3 -x {2.0 4.2 23 ------- null}
h -t 10.6081997920588 -s 2 -d 3 -p exp -e 200 -c 3 -i 24 -a 3 -x {2.0 4.2 -1 ------- null}
r -t 10.6137997920588 -s 2 -d 3 -p exp -e 200 -c 3 -i 17 -a 3 -x {2.0 4.2 17 ------- null}
+ -t 10.6137997920588 -s 3 -d 4 -p exp -e 200 -c 3 -i 17 -a 3 -x {2.0 4.2 17 ------- null}
- -t 10.6137997920588 -s 3 -d 4 -p exp -e 200 -c 3 -i 17 -a 3 -x {2.0 4.2 17 ------- null}
h -t 10.6137997920588 -s 3 -d 4 -p exp -e 200 -c 3 -i 17 -a 3 -x {2.0 4.2 -1 ------- null}
+ -t 10.6192015473477 -s 0 -d 3 -p exp -e 200 -c 1 -i 25 -a 1 -x {0.0 4.0 1 ------- null}
- -t 10.6192015473477 -s 0 -d 3 -p exp -e 200 -c 1 -i 25 -a 1 -x {0.0 4.0 1 ------- null}
h -t 10.6192015473477 -s 0 -d 3 -p exp -e 200 -c 1 -i 25 -a 1 -x {0.0 4.0 -1 ------- null}
r -t 10.6193997920588 -s 3 -d 4 -p exp -e 200 -c 3 -i 11 -a 3 -x {2.0 4.2 11 ------- null}
+ -t 10.6241997920588 -s 2 -d 3 -p exp -e 200 -c 3 -i 26 -a 3 -x {2.0 4.2 24 ------- null}
- -t 10.6241997920588 -s 2 -d 3 -p exp -e 200 -c 3 -i 26 -a 3 -x {2.0 4.2 24 ------- null}
h -t 10.6241997920588 -s 2 -d 3 -p exp -e 200 -c 3 -i 26 -a 3 -x {2.0 4.2 -1 ------- null}
r -t 10.6297997920588 -s 2 -d 3 -p exp -e 200 -c 3 -i 18 -a 3 -x {2.0 4.2 18 ------- null}
+ -t 10.6297997920588 -s 3 -d 4 -p exp -e 200 -c 3 -i 18 -a 3 -x {2.0 4.2 18 ------- null}
- -t 10.6297997920588 -s 3 -d 4 -p exp -e 200 -c 3 -i 18 -a 3 -x {2.0 4.2 18 ------- null}
h -t 10.6297997920588 -s 3 -d 4 -p exp -e 200 -c 3 -i 18 -a 3 -x {2.0 4.2 -1 ------- null}
+ -t 10.6352015473477 -s 0 -d 3 -p exp -e 200 -c 1 -i 27 -a 1 -x {0.0 4.0 2 ------- null}
- -t 10.6352015473477 -s 0 -d 3 -p exp -e 200 -c 1 -i 27 -a 1 -x {0.0 4.0 2 ------- null}
h -t 10.6352015473477 -s 0 -d 3 -p exp -e 200 -c 1 -i 27 -a 1 -x {0.0 4.0 -1 ------- null}
r -t 10.6353997920588 -s 3 -d 4 -p exp -e 200 -c 3 -i 12 -a 3 -x {2.0 4.2 12 ------- null}
+ -t 10.6401997920588 -s 2 -d 3 -p exp -e 200 -c 3 -i 28 -a 3 -x {2.0 4.2 25 ------- null}
- -t 10.6401997920588 -s 2 -d 3 -p exp -e 200 -c 3 -i 28 -a 3 -x {2.0 4.2 25 ------- null}
h -t 10.6401997920588 -s 2 -d 3 -p exp -e 200 -c 3 -i 28 -a 3 -x {2.0 4.2 -1 ------- null}
r -t 10.6457997920588 -s 2 -d 3 -p exp -e 200 -c 3 -i 19 -a 3 -x {2.0 4.2 19 ------- null}
+ -t 10.6457997920588 -s 3 -d 4 -p exp -e 200 -c 3 -i 19 -a 3 -x {2.0 4.2 19 ------- null}
- -t 10.6457997920588 -s 3 -d 4 -p exp -e 200 -c 3 -i 19 -a 3 -x {2.0 4.2 19 ------- null}
h -t 10.6457997920588 -s 3 -d 4 -p exp -e 200 -c 3 -i 19 -a 3 -x {2.0 4.2 -1 ------- null}
+ -t 10.6512015473477 -s 0 -d 3 -p exp -e 200 -c 1 -i 29 -a 1 -x {0.0 4.0 3 ------- null}
- -t 10.6512015473477 -s 0 -d 3 -p exp -e 200 -c 1 -i 29 -a 1 -x {0.0 4.0 3 ------- null}
h -t 10.6512015473477 -s 0 -d 3 -p exp -e 200 -c 1 -i 29 -a 1 -x {0.0 4.0 -1 ------- null}
r -t 10.6513997920588 -s 3 -d 4 -p exp -e 200 -c 3 -i 13 -a 3 -x {2.0 4.2 13 ------- null}
+ -t 10.6561997920588 -s 2 -d 3 -p exp -e 200 -c 3 -i 30 -a 3 -x {2.0 4.2 26 ------- null}
- -t 10.6561997920588 -s 2 -d 3 -p exp -e 200 -c 3 -i 30 -a 3 -x {2.0 4.2 26 ------- null}
h -t 10.6561997920588 -s 2 -d 3 -p exp -e 200 -c 3 -i 30 -a 3 -x {2.0 4.2 -1 ------- null}
r -t 10.6617997920588 -s 2 -d 3 -p exp -e 200 -c 3 -i 20 -a 3 -x {2.0 4.2 20 ------- null}
+ -t 10.6617997920588 -s 3 -d 4 -p exp -e 200 -c 3 -i 20 -a 3 -x {2.0 4.2 20 ------- null}
- -t 10.6617997920588 -s 3 -d 4 -p exp -e 200 -c 3 -i 20 -a 3 -x {2.0 4.2 20 ------- null}
h -t 10.6617997920588 -s 3 -d 4 -p exp -e 200 -c 3 -i 20 -a 3 -x {2.0 4.2 -1 ------- null}
+ -t 10.6672015473477 -s 0 -d 3 -p exp -e 200 -c 1 -i 31 -a 1 -x {0.0 4.0 4 ------- null}
- -t 10.6672015473477 -s 0 -d 3 -p exp -e 200 -c 1 -i 31 -a 1 -x {0.0 4.0 4 ------- null}
h -t 10.6672015473477 -s 0 -d 3 -p exp -e 200 -c 1 -i 31 -a 1 -x {0.0 4.0 -1 ------- null}
r -t 10.6673997920588 -s 3 -d 4 -p exp -e 200 -c 3 -i 14 -a 3 -x {2.0 4.2 14 ------- null}
+ -t 10.6721997920588 -s 2 -d 3 -p exp -e 200 -c 3 -i 32 -a 3 -x {2.0 4.2 27 ------- null}
- -t 10.6721997920588 -s 2 -d 3 -p exp -e 200 -c 3 -i 32 -a 3 -x {2.0 4.2 27 ------- null}
h -t 10.6721997920588 -s 2 -d 3 -p exp -e 200 -c 3 -i 32 -a 3 -x {2.0 4.2 -1 ------- null}
r -t 10.6777997920588 -s 2 -d 3 -p exp -e 200 -c 3 -i 21 -a 3 -x {2.0 4.2 21 ------- null}
+ -t 10.6777997920588 -s 3 -d 4 -p exp -e 200 -c 3 -i 21 -a 3 -x {2.0 4.2 21 ------- null}
- -t 10.6777997920588 -s 3 -d 4 -p exp -e 200 -c 3 -i 21 -a 3 -x {2.0 4.2 21 ------- null}
h -t 10.6777997920588 -s 3 -d 4 -p exp -e 200 -c 3 -i 21 -a 3 -x {2.0 4.2 -1 ------- null}
+ -t 10.6832015473477 -s 0 -d 3 -p exp -e 200 -c 1 -i 33 -a 1 -x {0.0 4.0 5 ------- null}
- -t 10.6832015473477 -s 0 -d 3 -p exp -e 200 -c 1 -i 33 -a 1 -x {0.0 4.0 5 ------- null}
h -t 10.6832015473477 -s 0 -d 3 -p exp -e 200 -c 1 -i 33 -a 1 -x {0.0 4.0 -1 ------- null}
r -t 10.6833997920588 -s 3 -d 4 -p exp -e 200 -c 3 -i 15 -a 3 -x {2.0 4.2 15 ------- null}
+ -t 10.6881997920588 -s 2 -d 3 -p exp -e 200 -c 3 -i 34 -a 3 -x {2.0 4.2 28 ------- null}
- -t 10.6881997920588 -s 2 -d 3 -p exp -e 200 -c 3 -i 34 -a 3 -x {2.0 4.2 28 ------- null}
h -t 10.6881997920588 -s 2 -d 3 -p exp -e 200 -c 3 -i 34 -a 3 -x {2.0 4.2 -1 ------- null}
r -t 10.6937997920588 -s 2 -d 3 -p exp -e 200 -c 3 -i 22 -a 3 -x {2.0 4.2 22 ------- null}
+ -t 10.6937997920588 -s 3 -d 4 -p exp -e 200 -c 3 -i 22 -a 3 -x {2.0 4.2 22 ------- null}
- -t 10.6937997920588 -s 3 -d 4 -p exp -e 200 -c 3 -i 22 -a 3 -x {2.0 4.2 22 ------- null}
h -t 10.6937997920588 -s 3 -d 4 -p exp -e 200 -c 3 -i 22 -a 3 -x {2.0 4.2 -1 ------- null}
+ -t 10.6992015473477 -s 0 -d 3 -p exp -e 200 -c 1 -i 35 -a 1 -x {0.0 4.0 6 ------- null}
- -t 10.6992015473477 -s 0 -d 3 -p exp -e 200 -c 1 -i 35 -a 1 -x {0.0 4.0 6 ------- null}
h -t 10.6992015473477 -s 0 -d 3 -p exp -e 200 -c 1 -i 35 -a 1 -x {0.0 4.0 -1 ------- null}
r -t 10.6993997920588 -s 3 -d 4 -p exp -e 200 -c 3 -i 16 -a 3 -x {2.0 4.2 16 ------- null}
+ -t 10.7041997920588 -s 2 -d 3 -p exp -e 200 -c 3 -i 36 -a 3 -x {2.0 4.2 29 ------- null}
- -t 10.7041997920588 -s 2 -d 3 -p exp -e 200 -c 3 -i 36 -a 3 -x {2.0 4.2 29 ------- null}
h -t 10.7041997920588 -s 2 -d 3 -p exp -e 200 -c 3 -i 36 -a 3 -x {2.0 4.2 -1 ------- null}
r -t 10.7048015473477 -s 0 -d 3 -p exp -e 200 -c 1 -i 23 -a 1 -x {0.0 4.0 0 ------- null}
+ -t 10.7048015473477 -s 3 -d 4 -p exp -e 200 -c 1 -i 23 -a 1 -x {0.0 4.0 0 ------- null}
- -t 10.7048015473477 -s 3 -d 4 -p exp -e 200 -c 1 -i 23 -a 1 -x {0.0 4.0 0 ------- null}
h -t 10.7048015473477 -s 3 -d 4 -p exp -e 200 -c 1 -i 23 -a 1 -x {0.0 4.0 -1 ------- null}
r -t 10.7097997920588 -s 2 -d 3 -p exp -e 200 -c 3 -i 24 -a 3 -x {2.0 4.2 23 ------- null}
+ -t 10.7097997920588 -s 3 -d 4 -p exp -e 200 -c 3 -i 24 -a 3 -x {2.0 4.2 23 ------- null}
- -t 10.7097997920588 -s 3 -d 4 -p exp -e 200 -c 3 -i 24 -a 3 -x {2.0 4.2 23 ------- null}
h -t 10.7097997920588 -s 3 -d 4 -p exp -e 200 -c 3 -i 24 -a 3 -x {2.0 4.2 -1 ------- null}
+ -t 10.7152015473477 -s 0 -d 3 -p exp -e 200 -c 1 -i 37 -a 1 -x {0.0 4.0 7 ------- null}
- -t 10.7152015473477 -s 0 -d 3 -p exp -e 200 -c 1 -i 37 -a 1 -x {0.0 4.0 7 ------- null}
h -t 10.7152015473477 -s 0 -d 3 -p exp -e 200 -c 1 -i 37 -a 1 -x {0.0 4.0 -1 ------- null}
r -t 10.7153997920588 -s 3 -d 4 -p exp -e 200 -c 3 -i 17 -a 3 -x {2.0 4.2 17 ------- null}
+ -t 10.7201997920588 -s 2 -d 3 -p exp -e 200 -c 3 -i 38 -a 3 -x {2.0 4.2 30 ------- null}
- -t 10.7201997920588 -s 2 -d 3 -p exp -e 200 -c 3 -i 38 -a 3 -x {2.0 4.2 30 ------- null}
h -t 10.7201997920588 -s 2 -d 3 -p exp -e 200 -c 3 -i 38 -a 3 -x {2.0 4.2 -1 ------- null}
r -t 10.7208015473477 -s 0 -d 3 -p exp -e 200 -c 1 -i 25 -a 1 -x {0.0 4.0 1 ------- null}
+ -t 10.7208015473477 -s 3 -d 4 -p exp -e 200 -c 1 -i 25 -a 1 -x {0.0 4.0 1 ------- null}
- -t 10.7208015473477 -s 3 -d 4 -p exp -e 200 -c 1 -i 25 -a 1 -x {0.0 4.0 1 ------- null}
h -t 10.7208015473477 -s 3 -d 4 -p exp -e 200 -c 1 -i 25 -a 1 -x {0.0 4.0 -1 ------- null}
r -t 10.7257997920588 -s 2 -d 3 -p exp -e 200 -c 3 -i 26 -a 3 -x {2.0 4.2 24 ------- null}
+ -t 10.7257997920588 -s 3 -d 4 -p exp -e 200 -c 3 -i 26 -a 3 -x {2.0 4.2 24 ------- null}
- -t 10.7257997920588 -s 3 -d 4 -p exp -e 200 -c 3 -i 26 -a 3 -x {2.0 4.2 24 ------- null}
h -t 10.7257997920588 -s 3 -d 4 -p exp -e 200 -c 3 -i 26 -a 3 -x {2.0 4.2 -1 ------- null}
+ -t 10.7312015473477 -s 0 -d 3 -p exp -e 200 -c 1 -i 39 -a 1 -x {0.0 4.0 8 ------- null}
- -t 10.7312015473477 -s 0 -d 3 -p exp -e 200 -c 1 -i 39 -a 1 -x {0.0 4.0 8 ------- null}
h -t 10.7312015473477 -s 0 -d 3 -p exp -e 200 -c 1 -i 39 -a 1 -x {0.0 4.0 -1 ------- null}
r -t 10.7313997920588 -s 3 -d 4 -p exp -e 200 -c 3 -i 18 -a 3 -x {2.0 4.2 18 ------- null}
+ -t 10.7361997920588 -s 2 -d 3 -p exp -e 200 -c 3 -i 40 -a 3 -x {2.0 4.2 31 ------- null}
- -t 10.7361997920588 -s 2 -d 3 -p exp -e 200 -c 3 -i 40 -a 3 -x {2.0 4.2 31 ------- null}
h -t 10.7361997920588 -s 2 -d 3 -p exp -e 200 -c 3 -i 40 -a 3 -x {2.0 4.2 -1 ------- null}
r -t 10.7368015473477 -s 0 -d 3 -p exp -e 200 -c 1 -i 27 -a 1 -x {0.0 4.0 2 ------- null}
+ -t 10.7368015473477 -s 3 -d 4 -p exp -e 200 -c 1 -i 27 -a 1 -x {0.0 4.0 2 ------- null}
- -t 10.7368015473477 -s 3 -d 4 -p exp -e 200 -c 1 -i 27 -a 1 -x {0.0 4.0 2 ------- null}
h -t 10.7368015473477 -s 3 -d 4 -p exp -e 200 -c 1 -i 27 -a 1 -x {0.0 4.0 -1 ------- null}
r -t 10.7417997920588 -s 2 -d 3 -p exp -e 200 -c 3 -i 28 -a 3 -x {2.0 4.2 25 ------- null}
+ -t 10.7417997920588 -s 3 -d 4 -p exp -e 200 -c 3 -i 28 -a 3 -x {2.0 4.2 25 ------- null}
- -t 10.7417997920588 -s 3 -d 4 -p exp -e 200 -c 3 -i 28 -a 3 -x {2.0 4.2 25 ------- null}
h -t 10.7417997920588 -s 3 -d 4 -p exp -e 200 -c 3 -i 28 -a 3 -x {2.0 4.2 -1 ------- null}
+ -t 10.7472015473477 -s 0 -d 3 -p exp -e 200 -c 1 -i 41 -a 1 -x {0.0 4.0 9 ------- null}
- -t 10.7472015473477 -s 0 -d 3 -p exp -e 200 -c 1 -i 41 -a 1 -x {0.0 4.0 9 ------- null}
h -t 10.7472015473477 -s 0 -d 3 -p exp -e 200 -c 1 -i 41 -a 1 -x {0.0 4.0 -1 ------- null}
r -t 10.7473997920588 -s 3 -d 4 -p exp -e 200 -c 3 -i 19 -a 3 -x {2.0 4.2 19 ------- null}
+ -t 10.7521997920588 -s 2 -d 3 -p exp -e 200 -c 3 -i 42 -a 3 -x {2.0 4.2 32 ------- null}
- -t 10.7521997920588 -s 2 -d 3 -p exp -e 200 -c 3 -i 42 -a 3 -x {2.0 4.2 32 ------- null}
h -t 10.7521997920588 -s 2 -d 3 -p exp -e 200 -c 3 -i 42 -a 3 -x {2.0 4.2 -1 ------- null}
r -t 10.7528015473477 -s 0 -d 3 -p exp -e 200 -c 1 -i 29 -a 1 -x {0.0 4.0 3 ------- null}
+ -t 10.7528015473477 -s 3 -d 4 -p exp -e 200 -c 1 -i 29 -a 1 -x {0.0 4.0 3 ------- null}
- -t 10.7528015473477 -s 3 -d 4 -p exp -e 200 -c 1 -i 29 -a 1 -x {0.0 4.0 3 ------- null}
h -t 10.7528015473477 -s 3 -d 4 -p exp -e 200 -c 1 -i 29 -a 1 -x {0.0 4.0 -1 ------- null}
r -t 10.7577997920588 -s 2 -d 3 -p exp -e 200 -c 3 -i 30 -a 3 -x {2.0 4.2 26 ------- null}
+ -t 10.7577997920588 -s 3 -d 4 -p exp -e 200 -c 3 -i 30 -a 3 -x {2.0 4.2 26 ------- null}
- -t 10.7577997920588 -s 3 -d 4 -p exp -e 200 -c 3 -i 30 -a 3 -x {2.0 4.2 26 ------- null}
h -t 10.7577997920588 -s 3 -d 4 -p exp -e 200 -c 3 -i 30 -a 3 -x {2.0 4.2 -1 ------- null}
+ -t 10.7632015473477 -s 0 -d 3 -p exp -e 200 -c 1 -i 43 -a 1 -x {0.0 4.0 10 ------- null}
- -t 10.7632015473477 -s 0 -d 3 -p exp -e 200 -c 1 -i 43 -a 1 -x {0.0 4.0 10 ------- null}
h -t 10.7632015473477 -s 0 -d 3 -p exp -e 200 -c 1 -i 43 -a 1 -x {0.0 4.0 -1 ------- null}
r -t 10.7633997920588 -s 3 -d 4 -p exp -e 200 -c 3 -i 20 -a 3 -x {2.0 4.2 20 ------- null}
+ -t 10.7681997920588 -s 2 -d 3 -p exp -e 200 -c 3 -i 44 -a 3 -x {2.0 4.2 33 ------- null}
- -t 10.7681997920588 -s 2 -d 3 -p exp -e 200 -c 3 -i 44 -a 3 -x {2.0 4.2 33 ------- null}
h -t 10.7681997920588 -s 2 -d 3 -p exp -e 200 -c 3 -i 44 -a 3 -x {2.0 4.2 -1 ------- null}
r -t 10.7688015473477 -s 0 -d 3 -p exp -e 200 -c 1 -i 31 -a 1 -x {0.0 4.0 4 ------- null}
+ -t 10.7688015473477 -s 3 -d 4 -p exp -e 200 -c 1 -i 31 -a 1 -x {0.0 4.0 4 ------- null}
- -t 10.7688015473477 -s 3 -d 4 -p exp -e 200 -c 1 -i 31 -a 1 -x {0.0 4.0 4 ------- null}
h -t 10.7688015473477 -s 3 -d 4 -p exp -e 200 -c 1 -i 31 -a 1 -x {0.0 4.0 -1 ------- null}
r -t 10.7737997920588 -s 2 -d 3 -p exp -e 200 -c 3 -i 32 -a 3 -x {2.0 4.2 27 ------- null}
+ -t 10.7737997920588 -s 3 -d 4 -p exp -e 200 -c 3 -i 32 -a 3 -x {2.0 4.2 27 ------- null}
- -t 10.7737997920588 -s 3 -d 4 -p exp -e 200 -c 3 -i 32 -a 3 -x {2.0 4.2 27 ------- null}
h -t 10.7737997920588 -s 3 -d 4 -p exp -e 200 -c 3 -i 32 -a 3 -x {2.0 4.2 -1 ------- null}
+ -t 10.7792015473477 -s 0 -d 3 -p exp -e 200 -c 1 -i 45 -a 1 -x {0.0 4.0 11 ------- null}
- -t 10.7792015473477 -s 0 -d 3 -p exp -e 200 -c 1 -i 45 -a 1 -x {0.0 4.0 11 ------- null}
h -t 10.7792015473477 -s 0 -d 3 -p exp -e 200 -c 1 -i 45 -a 1 -x {0.0 4.0 -1 ------- null}
r -t 10.7793997920588 -s 3 -d 4 -p exp -e 200 -c 3 -i 21 -a 3 -x {2.0 4.2 21 ------- null}
+ -t 10.7841997920588 -s 2 -d 3 -p exp -e 200 -c 3 -i 46 -a 3 -x {2.0 4.2 34 ------- null}
- -t 10.7841997920588 -s 2 -d 3 -p exp -e 200 -c 3 -i 46 -a 3 -x {2.0 4.2 34 ------- null}
h -t 10.7841997920588 -s 2 -d 3 -p exp -e 200 -c 3 -i 46 -a 3 -x {2.0 4.2 -1 ------- null}
r -t 10.7848015473477 -s 0 -d 3 -p exp -e 200 -c 1 -i 33 -a 1 -x {0.0 4.0 5 ------- null}
+ -t 10.7848015473477 -s 3 -d 4 -p exp -e 200 -c 1 -i 33 -a 1 -x {0.0 4.0 5 ------- null}
- -t 10.7848015473477 -s 3 -d 4 -p exp -e 200 -c 1 -i 33 -a 1 -x {0.0 4.0 5 ------- null}
h -t 10.7848015473477 -s 3 -d 4 -p exp -e 200 -c 1 -i 33 -a 1 -x {0.0 4.0 -1 ------- null}
r -t 10.7897997920588 -s 2 -d 3 -p exp -e 200 -c 3 -i 34 -a 3 -x {2.0 4.2 28 ------- null}
+ -t 10.7897997920588 -s 3 -d 4 -p exp -e 200 -c 3 -i 34 -a 3 -x {2.0 4.2 28 ------- null}
- -t 10.7897997920588 -s 3 -d 4 -p exp -e 200 -c 3 -i 34 -a 3 -x {2.0 4.2 28 ------- null}
h -t 10.7897997920588 -s 3 -d 4 -p exp -e 200 -c 3 -i 34 -a 3 -x {2.0 4.2 -1 ------- null}
+ -t 10.7952015473477 -s 0 -d 3 -p exp -e 200 -c 1 -i 47 -a 1 -x {0.0 4.0 12 ------- null}
- -t 10.7952015473477 -s 0 -d 3 -p exp -e 200 -c 1 -i 47 -a 1 -x {0.0 4.0 12 ------- null}
h -t 10.7952015473477 -s 0 -d 3 -p exp -e 200 -c 1 -i 47 -a 1 -x {0.0 4.0 -1 ------- null}
r -t 10.7953997920588 -s 3 -d 4 -p exp -e 200 -c 3 -i 22 -a 3 -x {2.0 4.2 22 ------- null}
+ -t 10.8001997920588 -s 2 -d 3 -p exp -e 200 -c 3 -i 48 -a 3 -x {2.0 4.2 35 ------- null}
- -t 10.8001997920588 -s 2 -d 3 -p exp -e 200 -c 3 -i 48 -a 3 -x {2.0 4.2 35 ------- null}
h -t 10.8001997920588 -s 2 -d 3 -p exp -e 200 -c 3 -i 48 -a 3 -x {2.0 4.2 -1 ------- null}
r -t 10.8008015473477 -s 0 -d 3 -p exp -e 200 -c 1 -i 35 -a 1 -x {0.0 4.0 6 ------- null}
+ -t 10.8008015473477 -s 3 -d 4 -p exp -e 200 -c 1 -i 35 -a 1 -x {0.0 4.0 6 ------- null}
- -t 10.8008015473477 -s 3 -d 4 -p exp -e 200 -c 1 -i 35 -a 1 -x {0.0 4.0 6 ------- null}
h -t 10.8008015473477 -s 3 -d 4 -p exp -e 200 -c 1 -i 35 -a 1 -x {0.0 4.0 -1 ------- null}
r -t 10.8057997920588 -s 2 -d 3 -p exp -e 200 -c 3 -i 36 -a 3 -x {2.0 4.2 29 ------- null}
+ -t 10.8057997920588 -s 3 -d 4 -p exp -e 200 -c 3 -i 36 -a 3 -x {2.0 4.2 29 ------- null}
- -t 10.8057997920588 -s 3 -d 4 -p exp -e 200 -c 3 -i 36 -a 3 -x {2.0 4.2 29 ------- null}
h -t 10.8057997920588 -s 3 -d 4 -p exp -e 200 -c 3 -i 36 -a 3 -x {2.0 4.2 -1 ------- null}
r -t 10.8064015473477 -s 3 -d 4 -p exp -e 200 -c 1 -i 23 -a 1 -x {0.0 4.0 0 ------- null}
+ -t 10.8112015473477 -s 0 -d 3 -p exp -e 200 -c 1 -i 49 -a 1 -x {0.0 4.0 13 ------- null}
- -t 10.8112015473477 -s 0 -d 3 -p exp -e 200 -c 1 -i 49 -a 1 -x {0.0 4.0 13 ------- null}
h -t 10.8112015473477 -s 0 -d 3 -p exp -e 200 -c 1 -i 49 -a 1 -x {0.0 4.0 -1 ------- null}
r -t 10.8113997920588 -s 3 -d 4 -p exp -e 200 -c 3 -i 24 -a 3 -x {2.0 4.2 23 ------- null}
+ -t 10.8161997920588 -s 2 -d 3 -p exp -e 200 -c 3 -i 50 -a 3 -x {2.0 4.2 36 ------- null}